 Entering Link 1 = C:\G16W\l1.exe PID=     19604.
  
 Copyright (c) 1988-2017, Gaussian, Inc.  All Rights Reserved.
  
 This is part of the Gaussian(R) 16 program.  It is based on
 the Gaussian(R) 09 system (copyright 2009, Gaussian, Inc.),
 the Gaussian(R) 03 system (copyright 2003, Gaussian, Inc.),
 the Gaussian(R) 98 system (copyright 1998, Gaussian, Inc.),
 the Gaussian(R) 94 system (copyright 1995, Gaussian, Inc.),
 the Gaussian 92(TM) system (copyright 1992, Gaussian, Inc.),
 the Gaussian 90(TM) system (copyright 1990, Gaussian, Inc.),
 the Gaussian 88(TM) system (copyright 1988, Gaussian, Inc.),
 the Gaussian 86(TM) system (copyright 1986, Carnegie Mellon
 University), and the Gaussian 82(TM) system (copyright 1983,
 Carnegie Mellon University). Gaussian is a federally registered
 trademark of Gaussian, Inc.
  
 This software contains proprietary and confidential information,
 including trade secrets, belonging to Gaussian, Inc.
  
 This software is provided under written license and may be
 used, copied, transmitted, or stored only in accord with that
 written license.
  
 The following legend is applicable only to US Government
 contracts under FAR:
  
                    RESTRICTED RIGHTS LEGEND
  
 Use, reproduction and disclosure by the US Government is
 subject to restrictions as set forth in subparagraphs (a)
 and (c) of the Commercial Computer Software - Restricted
 Rights clause in FAR 52.227-19.
  
 Gaussian, Inc.
 340 Quinnipiac St., Bldg. 40, Wallingford CT 06492
  
  
 ---------------------------------------------------------------
 Warning -- This program may not be used in any manner that
 competes with the business of Gaussian, Inc. or will provide
 assistance to any competitor of Gaussian, Inc.  The licensee
 of this program is prohibited from giving any competitor of
 Gaussian, Inc. access to this program.  By using this program,
 the user acknowledges that Gaussian, Inc. is engaged in the
 business of creating and licensing software in the field of
 computational chemistry and represents and warrants to the
 licensee that it is not a competitor of Gaussian, Inc. and that
 it will not use this program in any manner prohibited above.
 ---------------------------------------------------------------
  

 Cite this work as:
 Gaussian 16, Revision B.01,
 M. J. Frisch, G. W. Trucks, H. B. Schlegel, G. E. Scuseria, 
 M. A. Robb, J. R. Cheeseman, G. Scalmani, V. Barone, 
 G. A. Petersson, H. Nakatsuji, X. Li, M. Caricato, A. V. Marenich, 
 J. Bloino, B. G. Janesko, R. Gomperts, B. Mennucci, H. P. Hratchian, 
 J. V. Ortiz, A. F. Izmaylov, J. L. Sonnenberg, D. Williams-Young, 
 F. Ding, F. Lipparini, F. Egidi, J. Goings, B. Peng, A. Petrone, 
 T. Henderson, D. Ranasinghe, V. G. Zakrzewski, J. Gao, N. Rega, 
 G. Zheng, W. Liang, M. Hada, M. Ehara, K. Toyota, R. Fukuda, 
 J. Hasegawa, M. Ishida, T. Nakajima, Y. Honda, O. Kitao, H. Nakai, 
 T. Vreven, K. Throssell, J. A. Montgomery, Jr., J. E. Peralta, 
 F. Ogliaro, M. J. Bearpark, J. J. Heyd, E. N. Brothers, K. N. Kudin, 
 V. N. Staroverov, T. A. Keith, R. Kobayashi, J. Normand, 
 K. Raghavachari, A. P. Rendell, J. C. Burant, S. S. Iyengar, 
 J. Tomasi, M. Cossi, J. M. Millam, M. Klene, C. Adamo, R. Cammi, 
 J. W. Ochterski, R. L. Martin, K. Morokuma, O. Farkas, 
 J. B. Foresman, and D. J. Fox, Gaussian, Inc., Wallingford CT, 2016.
 
 ******************************************
 Gaussian 16:  EM64W-G16RevB.01 16-Dec-2017
                10-Jun-2024 
 ******************************************
 %nprocshared=4
 Will use up to    4 processors via shared memory.
 %mem=4gb
 %chk=C:\Users\sato4\Documents\UTokyo\EEIC-Exp\E1\input\H.chk
 ---------------------------------------------
 #p CIS(NStates=55,root=1)/gen int=(ultrafine)
 ---------------------------------------------
 1/38=1,172=1/1;
 2/12=2,17=6,18=5,40=1/2;
 3/5=7,11=9,25=1,30=1,75=-5/1,2,3,8;
 4//1;
 5/5=2,38=5/2;
 8/6=1,10=1,107=1,108=55/1;
 9/8=1,41=55,42=1/14;
 6/7=2,8=2,9=2,10=2/1;
 99/5=1,9=1/99;
 Leave Link    1 at Mon Jun 10 13:16:10 2024, MaxMem=   536870912 cpu:               0.0 elap:               0.3
 (Enter C:\G16W\l101.exe)
 -------------------
 Title Card Required
 -------------------
 Symbolic Z-matrix:
 Charge =  0 Multiplicity = 2
 H                     0.        0.        0. 
 
 ITRead=  0
 MicOpt= -1
 NAtoms=      1 NQM=        1 NQMF=       0 NMMI=      0 NMMIF=      0
                NMic=       0 NMicF=      0.
                    Isotopes and Nuclear Properties:
 (Nuclear quadrupole moments (NQMom) in fm**2, nuclear magnetic moments (NMagM)
  in nuclear magnetons)

  Atom         1
 IAtWgt=           1
 AtmWgt=   1.0078250
 NucSpn=           1
 AtZEff=   0.0000000
 NQMom=    0.0000000
 NMagM=    2.7928460
 AtZNuc=   1.0000000
 Leave Link  101 at Mon Jun 10 13:16:10 2024, MaxMem=   536870912 cpu:               0.0 elap:               0.2
 (Enter C:\G16W\l202.exe)
                          Input orientation:                          
 ---------------------------------------------------------------------
 Center     Atomic      Atomic             Coordinates (Angstroms)
 Number     Number       Type             X           Y           Z
 ---------------------------------------------------------------------
      1          1           0        0.000000    0.000000    0.000000
 ---------------------------------------------------------------------
 Stoichiometry    H(2)
 Framework group  OH[O(H)]
 Deg. of freedom     0
 Full point group                 OH      NOp  48
 Largest Abelian subgroup         D2H     NOp   8
 Largest concise Abelian subgroup C1      NOp   1
                         Standard orientation:                         
 ---------------------------------------------------------------------
 Center     Atomic      Atomic             Coordinates (Angstroms)
 Number     Number       Type             X           Y           Z
 ---------------------------------------------------------------------
      1          1           0        0.000000    0.000000    0.000000
 ---------------------------------------------------------------------
 Leave Link  202 at Mon Jun 10 13:16:12 2024, MaxMem=   536870912 cpu:               0.0 elap:               0.1
 (Enter C:\G16W\l301.exe)
 General basis read from cards:  (5D, 7F)
 Centers:       1
 S 1 1.00
     Exponent=  1.7949240000D+00 Coefficients=  1.0000000000D+00
 S 1 1.00
     Exponent=  7.1071600000D-01 Coefficients=  1.0000000000D+00
 S 1 1.00
     Exponent=  3.0480200000D-01 Coefficients=  1.0000000000D+00
 S 10 1.00
     Exponent=  1.7767755600D+03 Coefficients=  4.4000000000D-05
     Exponent=  2.5401771200D+02 Coefficients=  3.7200000000D-04
     Exponent=  5.4698039000D+01 Coefficients=  2.0940000000D-03
     Exponent=  1.5018344000D+01 Coefficients=  8.8630000000D-03
     Exponent=  4.9150780000D+00 Coefficients=  3.0540000000D-02
     Exponent=  1.7949240000D+00 Coefficients=  9.0342000000D-02
     Exponent=  7.1071600000D-01 Coefficients=  2.1323900000D-01
     Exponent=  3.0480200000D-01 Coefficients=  3.5235000000D-01
     Exponent=  1.3804600000D-01 Coefficients=  3.3965700000D-01
     Exponent=  6.2157000000D-02 Coefficients=  1.0733000000D-01
 S 1 1.00
     Exponent=  1.3804600000D-01 Coefficients=  1.0000000000D+00
 S 1 1.00
     Exponent=  6.2157000000D-02 Coefficients=  1.0000000000D+00
 S 1 1.00
     Exponent=  1.8900000000D-02 Coefficients=  1.0000000000D+00
 S 1 1.00
     Exponent=  6.3000000000D-03 Coefficients=  1.0000000000D+00
 S 1 1.00
     Exponent=  2.1000000000D-03 Coefficients=  1.0000000000D+00
 S 1 1.00
     Exponent=  7.0000000000D-04 Coefficients=  1.0000000000D+00
 S 1 1.00
     Exponent=  2.3000000000D-04 Coefficients=  1.0000000000D+00
 S 1 1.00
     Exponent=  8.0000000000D-05 Coefficients=  1.0000000000D+00
 P 1 1.00
     Exponent=  8.6490000000D+00 Coefficients=  1.0000000000D+00
 P 1 1.00
     Exponent=  3.4300000000D+00 Coefficients=  1.0000000000D+00
 P 1 1.00
     Exponent=  1.3600000000D+00 Coefficients=  1.0000000000D+00
 P 1 1.00
     Exponent=  5.3900000000D-01 Coefficients=  1.0000000000D+00
 P 1 1.00
     Exponent=  2.1400000000D-01 Coefficients=  1.0000000000D+00
 P 1 1.00
     Exponent=  6.7000000000D-02 Coefficients=  1.0000000000D+00
 P 1 1.00
     Exponent=  2.2300000000D-02 Coefficients=  1.0000000000D+00
 P 1 1.00
     Exponent=  7.4000000000D-03 Coefficients=  1.0000000000D+00
 P 1 1.00
     Exponent=  2.4800000000D-03 Coefficients=  1.0000000000D+00
 P 1 1.00
     Exponent=  8.2700000000D-04 Coefficients=  1.0000000000D+00
 P 1 1.00
     Exponent=  2.7600000000D-04 Coefficients=  1.0000000000D+00
 D 1 1.00
     Exponent=  4.4530000000D+00 Coefficients=  1.0000000000D+00
 D 1 1.00
     Exponent=  1.9580000000D+00 Coefficients=  1.0000000000D+00
 D 1 1.00
     Exponent=  8.6100000000D-01 Coefficients=  1.0000000000D+00
 D 1 1.00
     Exponent=  3.7800000000D-01 Coefficients=  1.0000000000D+00
 D 1 1.00
     Exponent=  1.2600000000D-01 Coefficients=  1.0000000000D+00
 D 1 1.00
     Exponent=  4.2000000000D-02 Coefficients=  1.0000000000D+00
 D 1 1.00
     Exponent=  1.4000000000D-02 Coefficients=  1.0000000000D+00
 D 1 1.00
     Exponent=  4.6700000000D-03 Coefficients=  1.0000000000D+00
 D 1 1.00
     Exponent=  1.5600000000D-03 Coefficients=  1.0000000000D+00
 D 1 1.00
     Exponent=  5.2000000000D-04 Coefficients=  1.0000000000D+00
 F 1 1.00
     Exponent=  4.1000000000D+00 Coefficients=  1.0000000000D+00
 F 1 1.00
     Exponent=  1.7800000000D+00 Coefficients=  1.0000000000D+00
 F 1 1.00
     Exponent=  7.7300000000D-01 Coefficients=  1.0000000000D+00
 F 1 1.00
     Exponent=  2.4500000000D-01 Coefficients=  1.0000000000D+00
 F 1 1.00
     Exponent=  8.1700000000D-02 Coefficients=  1.0000000000D+00
 F 1 1.00
     Exponent=  2.7200000000D-02 Coefficients=  1.0000000000D+00
 F 1 1.00
     Exponent=  9.1000000000D-03 Coefficients=  1.0000000000D+00
 F 1 1.00
     Exponent=  3.0000000000D-03 Coefficients=  1.0000000000D+00
 F 1 1.00
     Exponent=  1.0000000000D-03 Coefficients=  1.0000000000D+00
 G 1 1.00
     Exponent=  3.1990000000D+00 Coefficients=  1.0000000000D+00
 G 1 1.00
     Exponent=  1.3260000000D+00 Coefficients=  1.0000000000D+00
 G 1 1.00
     Exponent=  4.0700000000D-01 Coefficients=  1.0000000000D+00
 G 1 1.00
     Exponent=  1.3570000000D-01 Coefficients=  1.0000000000D+00
 G 1 1.00
     Exponent=  4.5200000000D-02 Coefficients=  1.0000000000D+00
 G 1 1.00
     Exponent=  1.5100000000D-02 Coefficients=  1.0000000000D+00
 G 1 1.00
     Exponent=  5.0000000000D-03 Coefficients=  1.0000000000D+00
 G 1 1.00
     Exponent=  1.7000000000D-03 Coefficients=  1.0000000000D+00
 ****
 Ernie: Thresh=  0.10000D-02 Tol=  0.10000D-05 Strict=F.
 There are    90 symmetry adapted cartesian basis functions of AG  symmetry.
 There are    34 symmetry adapted cartesian basis functions of B1G symmetry.
 There are    34 symmetry adapted cartesian basis functions of B2G symmetry.
 There are    34 symmetry adapted cartesian basis functions of B3G symmetry.
 There are     9 symmetry adapted cartesian basis functions of AU  symmetry.
 There are    38 symmetry adapted cartesian basis functions of B1U symmetry.
 There are    38 symmetry adapted cartesian basis functions of B2U symmetry.
 There are    38 symmetry adapted cartesian basis functions of B3U symmetry.
 There are    56 symmetry adapted basis functions of AG  symmetry.
 There are    26 symmetry adapted basis functions of B1G symmetry.
 There are    26 symmetry adapted basis functions of B2G symmetry.
 There are    26 symmetry adapted basis functions of B3G symmetry.
 There are     9 symmetry adapted basis functions of AU  symmetry.
 There are    29 symmetry adapted basis functions of B1U symmetry.
 There are    29 symmetry adapted basis functions of B2U symmetry.
 There are    29 symmetry adapted basis functions of B3U symmetry.
   230 basis functions,   324 primitive gaussians,   315 cartesian basis functions
     1 alpha electrons        0 beta electrons
       nuclear repulsion energy         0.0000000000 Hartrees.
 IExCor=    0 DFT=F Ex=HF Corr=None ExCW=0 ScaHFX=  1.000000
 ScaDFX=  1.000000  1.000000  1.000000  1.000000 ScalE2=  1.000000  1.000000
 IRadAn=      5 IRanWt=     -1 IRanGd=            0 ICorTp=0 IEmpDi=  4
 NAtoms=    1 NActive=    1 NUniq=    1 SFac= 1.00D+00 NAtFMM=   60 NAOKFM=F Big=F
 Integral buffers will be    131072 words long.
 Raffenetti 2 integral format.
 Two-electron integral symmetry is turned on.
 Leave Link  301 at Mon Jun 10 13:16:13 2024, MaxMem=   536870912 cpu:               1.0 elap:               0.1
 (Enter C:\G16W\l302.exe)
 NPDir=0 NMtPBC=     1 NCelOv=     1 NCel=       1 NClECP=     1 NCelD=      1
         NCelK=      1 NCelE2=     1 NClLst=     1 CellRange=     0.0.
 One-electron integrals computed using PRISM.
 One-electron integral symmetry used in STVInt
 NBasis=   230 RedAO= T EigKep=  2.76D-04  NBF=    56    26    26    26     9    29    29    29
 NBsUse=   230 1.00D-06 EigRej= -1.00D+00 NBFU=    56    26    26    26     9    29    29    29
 Leave Link  302 at Mon Jun 10 13:16:14 2024, MaxMem=   536870912 cpu:               1.0 elap:               0.8
 (Enter C:\G16W\l303.exe)
 DipDrv:  MaxL=1.
 Leave Link  303 at Mon Jun 10 13:16:15 2024, MaxMem=   536870912 cpu:               0.0 elap:               0.2
 (Enter C:\G16W\l308.exe)
 Leave Link  308 at Mon Jun 10 13:16:16 2024, MaxMem=   536870912 cpu:               0.0 elap:               0.3
 (Enter C:\G16W\l401.exe)
 ExpMin= 8.00D-05 ExpMax= 1.78D+03 ExpMxC= 8.65D+00 IAcc=3 IRadAn=         5 AccDes= 0.00D+00
 Harris functional with IExCor=  205 and IRadAn=       5 diagonalized for initial guess.
 HarFok:  IExCor=  205 AccDes= 0.00D+00 IRadAn=         5 IDoV= 1 UseB2=F ITyADJ=14
 ICtDFT=  3500011 ScaDFX=  1.000000  1.000000  1.000000  1.000000
 FoFCou: FMM=F IPFlag=           0 FMFlag=      100000 FMFlg1=           0
         NFxFlg=           0 DoJE=T BraDBF=F KetDBF=T FulRan=T
         wScrn=  0.000000 ICntrl=       500 IOpCl=  0 I1Cent=   200000004 NGrid=           0
         NMat0=    1 NMatS0=      1 NMatT0=    0 NMatD0=    1 NMtDS0=    0 NMtDT0=    0
 Petite list used in FoFCou.
 Harris En=-0.462785211318777    
 JPrj=0 DoOrth=F DoCkMO=F.
 Initial guess orbital symmetries:
 Alpha Orbitals:
       Occupied  (A1G)
       Virtual   (A1G) (A1G) (T1U) (T1U) (T1U) (A1G) (EG) (T2G)
                 (EG) (T2G) (T2G) (T1U) (T1U) (T1U) (A1G) (?A)
                 (A2U) (?A) (?A) (?A) (?A) (?A) (EG) (T2G) (EG)
                 (T2G) (T2G) (T1U) (T1U) (T1U) (?B) (?B) (?B) (?B)
                 (T2G) (T2G) (?B) (T2G) (?B) (A1G) (?A) (?A) (?A)
                 (A2U) (?A) (?A) (?A) (T1U) (T1U) (T1U) (T2G) (T2G)
                 (T2G) (EG) (EG) (?B) (?B) (?B) (T2G) (T2G) (?B)
                 (?B) (?B) (T2G) (A2U) (?A) (?A) (?A) (?A) (?A)
                 (?A) (T1U) (T1U) (T1U) (A1G) (T2G) (T2G) (T2G)
                 (EG) (EG) (?B) (?B) (?B) (?B) (?B) (?B) (T2G)
                 (T2G) (T2G) (A2U) (T2U) (T2U) (T2U) (T1U) (T1U)
                 (T1U) (T2G) (T2G) (T2G) (EG) (EG) (T1U) (T1U)
                 (T1U) (A1G) (T1G) (T1G) (T1G) (T2G) (T2G) (T2G)
                 (EG) (EG) (A1G) (A2U) (T2U) (T2U) (T2U) (T1U)
                 (T1U) (T1U) (T2G) (T2G) (T2G) (EG) (EG) (T1U)
                 (T1U) (T1U) (A1G) (T1G) (T1G) (T1G) (T2G) (T2G)
                 (T2G) (EG) (EG) (A1G) (T2U) (T2U) (T2U) (A2U)
                 (T1U) (T1U) (T1U) (T2G) (T2G) (T2G) (EG) (EG)
                 (T1U) (T1U) (T1U) (A1G) (T1G) (T1G) (T1G) (T2G)
                 (T2G) (T2G) (EG) (EG) (A1G) (T2U) (T2U) (T2U)
                 (A2U) (T1U) (T1U) (T1U) (T2G) (T2G) (T2G) (EG)
                 (EG) (T1U) (T1U) (T1U) (A1G) (T1G) (T1G) (T1G)
                 (T2G) (T2G) (T2G) (EG) (EG) (A1G) (T2G) (T2G)
                 (T2G) (EG) (EG) (T2U) (T2U) (T2U) (A2U) (T1U)
                 (T1U) (T1U) (T1U) (T1U) (T1U) (A1G) (T1G) (T1G)
                 (T1G) (T2G) (T2G) (T2G) (EG) (EG) (A1G) (T2G)
                 (T2G) (T2G) (EG) (EG) (T2U) (T2U) (T2U) (A2U)
                 (T1U) (T1U) (T1U) (T1U) (T1U) (T1U)
 Beta  Orbitals:
       Virtual   (A1G) (A1G) (A1G) (T1U) (T1U) (T1U) (A1G) (EG)
                 (T2G) (EG) (T2G) (T2G) (T1U) (T1U) (T1U) (A1G)
                 (?A) (A2U) (?A) (?A) (?A) (?A) (?A) (EG) (T2G)
                 (EG) (T2G) (T2G) (T1U) (T1U) (T1U) (?B) (?B) (?B)
                 (?B) (T2G) (T2G) (?B) (T2G) (?B) (A1G) (?A) (?A)
                 (?A) (A2U) (?A) (?A) (?A) (T1U) (T1U) (T1U) (T2G)
                 (T2G) (T2G) (EG) (EG) (?B) (?B) (?B) (T2G) (T2G)
                 (?B) (?B) (?B) (T2G) (A2U) (?A) (?A) (?A) (?A)
                 (?A) (?A) (T1U) (T1U) (T1U) (A1G) (T2G) (T2G)
                 (T2G) (EG) (EG) (?B) (?B) (?B) (?B) (?B) (?B)
                 (T2G) (T2G) (T2G) (A2U) (T2U) (T2U) (T2U) (T1U)
                 (T1U) (T1U) (T2G) (T2G) (T2G) (EG) (EG) (T1U)
                 (T1U) (T1U) (A1G) (T1G) (T1G) (T1G) (T2G) (T2G)
                 (T2G) (EG) (EG) (A1G) (A2U) (T2U) (T2U) (T2U)
                 (T1U) (T1U) (T1U) (T2G) (T2G) (T2G) (EG) (EG)
                 (T1U) (T1U) (T1U) (A1G) (T1G) (T1G) (T1G) (T2G)
                 (T2G) (T2G) (EG) (EG) (A1G) (T2U) (T2U) (T2U)
                 (A2U) (T1U) (T1U) (T1U) (T2G) (T2G) (T2G) (EG)
                 (EG) (T1U) (T1U) (T1U) (A1G) (T1G) (T1G) (T1G)
                 (T2G) (T2G) (T2G) (EG) (EG) (A1G) (T2U) (T2U)
                 (T2U) (A2U) (T1U) (T1U) (T1U) (T2G) (T2G) (T2G)
                 (EG) (EG) (T1U) (T1U) (T1U) (A1G) (T1G) (T1G)
                 (T1G) (T2G) (T2G) (T2G) (EG) (EG) (A1G) (T2G)
                 (T2G) (T2G) (EG) (EG) (T2U) (T2U) (T2U) (A2U)
                 (T1U) (T1U) (T1U) (T1U) (T1U) (T1U) (A1G) (T1G)
                 (T1G) (T1G) (T2G) (T2G) (T2G) (EG) (EG) (A1G)
                 (T2G) (T2G) (T2G) (EG) (EG) (T2U) (T2U) (T2U)
                 (A2U) (T1U) (T1U) (T1U) (T1U) (T1U) (T1U)
 The electronic state of the initial guess is 2-A1G.
 Initial guess <Sx>= 0.0000 <Sy>= 0.0000 <Sz>= 0.5000 <S**2>= 0.7500 S= 0.5000
 Leave Link  401 at Mon Jun 10 13:16:19 2024, MaxMem=   536870912 cpu:               2.0 elap:               1.4
 (Enter C:\G16W\l502.exe)
 Keep R1 and R2 ints in memory in symmetry-blocked form, NReq=397464871.
 FoFCou: FMM=F IPFlag=           0 FMFlag=           0 FMFlg1=           0
         NFxFlg=           0 DoJE=F BraDBF=F KetDBF=F FulRan=T
         wScrn=  0.000000 ICntrl=       600 IOpCl=  0 I1Cent=           0 NGrid=           0
         NMat0=    1 NMatS0=  26565 NMatT0=    0 NMatD0=    1 NMtDS0=    0 NMtDT0=    0
 Petite list used in FoFCou.
 UHF open shell SCF:
 Using DIIS extrapolation, IDIIS=  1040.
 NGot=   536870912 LenX=   447549740 LenY=   447450074
 Requested convergence on RMS density matrix=1.00D-08 within 128 cycles.
 Requested convergence on MAX density matrix=1.00D-06.
 Requested convergence on             energy=1.00D-06.
 No special actions if energy rises.

 Cycle   1  Pass 1  IDiag  1:
 E=-0.495054688181324    
 DIIS: error= 1.56D-02 at cycle   1 NSaved=   1.
 NSaved= 1 IEnMin= 1 EnMin=-0.495054688181324     IErMin= 1 ErrMin= 1.56D-02
 ErrMax= 1.56D-02  0.00D+00 EMaxC= 1.00D-01 BMatC= 4.97D-03 BMatP= 4.97D-03
 IDIUse=3 WtCom= 8.44D-01 WtEn= 1.56D-01
 Coeff-Com:  0.100D+01
 Coeff-En:   0.100D+01
 Coeff:      0.100D+01
 Gap=     0.496 Goal=   None    Shift=    0.000
 GapD=    0.496 DampG=2.000 DampE=0.500 DampFc=1.0000 IDamp=-1.
 RMSDP=3.84D-04 MaxDP=8.87D-02              OVMax= 6.37D-02

 Cycle   2  Pass 1  IDiag  1:
 E=-0.499223285921758     Delta-E=       -0.004168597740 Rises=F Damp=F
 DIIS: error= 6.16D-03 at cycle   2 NSaved=   2.
 NSaved= 2 IEnMin= 2 EnMin=-0.499223285921758     IErMin= 2 ErrMin= 6.16D-03
 ErrMax= 6.16D-03  0.00D+00 EMaxC= 1.00D-01 BMatC= 7.74D-04 BMatP= 4.97D-03
 IDIUse=3 WtCom= 9.38D-01 WtEn= 6.16D-02
 Coeff-Com: -0.636D+00 0.164D+01
 Coeff-En:   0.000D+00 0.100D+01
 Coeff:     -0.596D+00 0.160D+01
 Gap=     0.500 Goal=   None    Shift=    0.000
 RMSDP=2.80D-04 MaxDP=6.52D-02 DE=-4.17D-03 OVMax= 4.01D-02

 Cycle   3  Pass 1  IDiag  1:
 E=-0.499998024739749     Delta-E=       -0.000774738818 Rises=F Damp=F
 DIIS: error= 2.68D-04 at cycle   3 NSaved=   3.
 NSaved= 3 IEnMin= 3 EnMin=-0.499998024739749     IErMin= 3 ErrMin= 2.68D-04
 ErrMax= 2.68D-04  0.00D+00 EMaxC= 1.00D-01 BMatC= 1.49D-06 BMatP= 7.74D-04
 IDIUse=3 WtCom= 9.97D-01 WtEn= 2.68D-03
 Coeff-Com:  0.571D-01-0.189D+00 0.113D+01
 Coeff-En:   0.000D+00 0.000D+00 0.100D+01
 Coeff:      0.569D-01-0.189D+00 0.113D+01
 Gap=     0.500 Goal=   None    Shift=    0.000
 RMSDP=1.55D-05 MaxDP=3.37D-03 DE=-7.75D-04 OVMax= 1.64D-03

 Cycle   4  Pass 1  IDiag  1:
 E=-0.499999281371729     Delta-E=       -0.000001256632 Rises=F Damp=F
 DIIS: error= 8.02D-06 at cycle   4 NSaved=   4.
 NSaved= 4 IEnMin= 4 EnMin=-0.499999281371729     IErMin= 4 ErrMin= 8.02D-06
 ErrMax= 8.02D-06  0.00D+00 EMaxC= 1.00D-01 BMatC= 1.60D-09 BMatP= 1.49D-06
 IDIUse=1 WtCom= 1.00D+00 WtEn= 0.00D+00
 Coeff-Com: -0.629D-02 0.223D-01-0.154D+00 0.114D+01
 Coeff:     -0.629D-02 0.223D-01-0.154D+00 0.114D+01
 Gap=     0.500 Goal=   None    Shift=    0.000
 RMSDP=5.83D-07 MaxDP=1.12D-04 DE=-1.26D-06 OVMax= 5.53D-05

 Cycle   5  Pass 1  IDiag  1:
 E=-0.499999282995358     Delta-E=       -0.000000001624 Rises=F Damp=F
 DIIS: error= 1.16D-06 at cycle   5 NSaved=   5.
 NSaved= 5 IEnMin= 5 EnMin=-0.499999282995358     IErMin= 5 ErrMin= 1.16D-06
 ErrMax= 1.16D-06  0.00D+00 EMaxC= 1.00D-01 BMatC= 3.02D-11 BMatP= 1.60D-09
 IDIUse=1 WtCom= 1.00D+00 WtEn= 0.00D+00
 Coeff-Com:  0.680D-03-0.262D-02 0.215D-01-0.257D+00 0.124D+01
 Coeff:      0.680D-03-0.262D-02 0.215D-01-0.257D+00 0.124D+01
 Gap=     0.500 Goal=   None    Shift=    0.000
 RMSDP=6.43D-08 MaxDP=1.19D-05 DE=-1.62D-09 OVMax= 8.14D-06

 Cycle   6  Pass 1  IDiag  1:
 E=-0.499999283025376     Delta-E=       -0.000000000030 Rises=F Damp=F
 DIIS: error= 7.74D-08 at cycle   6 NSaved=   6.
 NSaved= 6 IEnMin= 6 EnMin=-0.499999283025376     IErMin= 6 ErrMin= 7.74D-08
 ErrMax= 7.74D-08  0.00D+00 EMaxC= 1.00D-01 BMatC= 1.56D-13 BMatP= 3.02D-11
 IDIUse=1 WtCom= 1.00D+00 WtEn= 0.00D+00
 Coeff-Com: -0.962D-04 0.374D-03-0.303D-02 0.386D-01-0.205D+00 0.117D+01
 Coeff:     -0.962D-04 0.374D-03-0.303D-02 0.386D-01-0.205D+00 0.117D+01
 Gap=     0.500 Goal=   None    Shift=    0.000
 RMSDP=1.05D-08 MaxDP=1.76D-06 DE=-3.00D-11 OVMax= 4.51D-07

 Cycle   7  Pass 1  IDiag  1:
 E=-0.499999283025495     Delta-E=        0.000000000000 Rises=F Damp=F
 DIIS: error= 8.01D-09 at cycle   7 NSaved=   7.
 NSaved= 7 IEnMin= 7 EnMin=-0.499999283025495     IErMin= 7 ErrMin= 8.01D-09
 ErrMax= 8.01D-09  0.00D+00 EMaxC= 1.00D-01 BMatC= 1.24D-15 BMatP= 1.56D-13
 IDIUse=1 WtCom= 1.00D+00 WtEn= 0.00D+00
 Coeff-Com: -0.670D-08-0.252D-05 0.440D-04-0.146D-02 0.107D-01-0.148D+00
 Coeff-Com:  0.114D+01
 Coeff:     -0.670D-08-0.252D-05 0.440D-04-0.146D-02 0.107D-01-0.148D+00
 Coeff:      0.114D+01
 Gap=     0.500 Goal=   None    Shift=    0.000
 DSYEVD-2 returned Info=         113 IAlg= 4 N=    56 NDim=   230 NE2=     1945434 trying  DSYEV.
 RMSDP=7.09D-10 MaxDP=1.23D-07 DE=-1.19D-13 OVMax= 2.97D-08

 SCF Done:  E(UHF) = -0.499999283025     A.U. after    7 cycles
            NFock=  7  Conv=0.71D-09     -V/T= 2.0000
 <Sx>= 0.0000 <Sy>= 0.0000 <Sz>= 0.5000 <S**2>= 0.7500 S= 0.5000
 <L.S>= 0.000000000000E+00
 KE= 4.999975204247D-01 PE=-9.999968034502D-01 EE= 0.000000000000D+00
 Annihilation of the first spin contaminant:
 S**2 before annihilation     0.7500,   after     0.7500
 Leave Link  502 at Mon Jun 10 13:16:41 2024, MaxMem=   536870912 cpu:              21.0 elap:              20.9
 (Enter C:\G16W\l801.exe)
 Range of M.O.s used for correlation:     1   230
 NBasis=   230 NAE=     1 NBE=     0 NFC=     0 NFV=     0
 NROrb=    230 NOA=     1 NOB=     0 NVA=   229 NVB=   230
 *** There is no correlation energy for this system ***

 **** Warning!!: The largest alpha MO coefficient is  0.52089414D+02


 **** Warning!!: The largest beta MO coefficient is  0.52088083D+02

 Leave Link  801 at Mon Jun 10 13:16:42 2024, MaxMem=   536870912 cpu:               0.0 elap:               0.1
 (Enter C:\G16W\l914.exe)
 UHF ground state
 Keep R1, R2, and R3 ints in memory in symmetry-blocked form, NReq=397465211.
 FoFCou: FMM=F IPFlag=           0 FMFlag=           0 FMFlg1=           0
         NFxFlg=           0 DoJE=F BraDBF=F KetDBF=F FulRan=T
         wScrn=  0.000000 ICntrl=       600 IOpCl=  0 I1Cent=           0 NGrid=           0
         NMat0=    1 NMatS0=  26565 NMatT0=    0 NMatD0=    1 NMtDS0=    0 NMtDT0=    0
 Petite list used in FoFCou.
 MDV=   536870912 DFT=F DoStab=F Mixed=F DoRPA=F DoScal=F NonHer=F
 Making orbital integer symmetry assigments:
 Orbital symmetries:
 Alpha Orbitals:
       Occupied  (A1G)
       Virtual   (A1G) (A1G) (T1U) (T1U) (T1U) (T2G) (T2G) (T2G)
                 (EG) (EG) (A1G) (T1U) (T1U) (T1U) (T1U) (T2U)
                 (T1U) (A2U) (T1U) (T2U) (T2U) (A1G) (EG) (T2G)
                 (T2G) (EG) (T2G) (T1U) (T1U) (T1U) (T2G) (?A)
                 (?A) (T2G) (?A) (?A) (?A) (?A) (T2G) (T2U) (T1U)
                 (T2U) (T1U) (A2U) (T1U) (T2U) (T2G) (EG) (EG)
                 (T2G) (T2G) (A1G) (T1U) (T1U) (T1U) (?A) (T2G)
                 (T2G) (?A) (T2G) (?A) (?A) (?A) (?A) (T2U) (A2U)
                 (T1U) (T1U) (T2U) (T1U) (T2U) (T2G) (EG) (T2G)
                 (T2G) (EG) (A1G) (T1U) (T1U) (T1U) (T2G) (T2G)
                 (T2G) (T2G) (T1G) (T1G) (T2G) (T2G) (T1G) (T1U)
                 (T1U) (A2U) (T2U) (T2U) (T1U) (T2U) (T2G) (T2G)
                 (EG) (EG) (T2G) (T1U) (T1U) (T1U) (A1G) (?A) (?A)
                 (?A) (T2G) (?A) (T2G) (T2G) (?A) (?A) (T1U) (T2U)
                 (T2U) (A2U) (T1U) (T2U) (T1U) (T2G) (T2G) (EG)
                 (T2G) (EG) (T1U) (T1U) (T1U) (A1G) (T1G) (T1G)
                 (T2G) (T1G) (T2G) (T2G) (T2G) (T2G) (T2G) (T2U)
                 (A2U) (T2U) (T2U) (T1U) (T1U) (T1U) (T2G) (T2G)
                 (EG) (T2G) (EG) (T1U) (T1U) (T1U) (A1G) (T2G)
                 (T2G) (T2G) (T2G) (T1G) (T2G) (T2G) (T1G) (T1G)
                 (T1U) (A2U) (T2U) (T1U) (T1U) (T2U) (T2U) (T2G)
                 (EG) (T2G) (T2G) (EG) (T1U) (T1U) (T1U) (A1G)
                 (T1G) (T1G) (T2G) (T1G) (T2G) (T2G) (T2G) (T2G)
                 (T2G) (T2G) (T2G) (T2G) (EG) (EG) (T1U) (A2U)
                 (T1U) (T2U) (T1U) (T2U) (T2U) (T1U) (T1U) (T1U)
                 (A1G) (T1G) (T1G) (T2G) (T1G) (T2G) (T2G) (T2G)
                 (T2G) (T2G) (T2G) (T2G) (EG) (T2G) (EG) (?B) (?B)
                 (?B) (?B) (?B) (A2U) (?B) (T1U) (T1U) (T1U)
 Beta  Orbitals:
       Virtual   (A1G) (A1G) (T1U) (T1U) (T1U) (A1G) (T2G) (T2G)
                 (EG) (T2G) (EG) (T1U) (T1U) (T1U) (A2U) (?A) (?A)
                 (?A) (?A) (?A) (?A) (A1G) (T2G) (EG) (EG) (T2G)
                 (T2G) (T1U) (T1U) (T1U) (?B) (?B) (T2G) (?B) (T2G)
                 (T2G) (?B) (?B) (?B) (A1G) (T2U) (T2U) (T1U) (T2U)
                 (A2U) (T1U) (T1U) (EG) (EG) (T2G) (T2G) (T2G)
                 (T1U) (T1U) (T1U) (?B) (?B) (?B) (?B) (?B) (T2G)
                 (T2G) (T2G) (?B) (A1G) (A2U) (T1U) (T2U) (T1U)
                 (T2U) (T2U) (T1U) (EG) (T2G) (EG) (T2G) (T2G)
                 (T1U) (T1U) (T1U) (T2G) (T2G) (T2G) (T2G) (T2G)
                 (T2G) (T1G) (T1G) (T1G) (A1G) (T2U) (T1U) (A2U)
                 (T1U) (T2U) (T1U) (T2U) (EG) (T2G) (T2G) (EG)
                 (T2G) (T1U) (T1U) (T1U) (T1G) (T2G) (T2G) (T1G)
                 (T1G) (T2G) (T2G) (T2G) (T2G) (A1G) (T1U) (T2U)
                 (A2U) (T2U) (T2U) (T1U) (T1U) (EG) (T2G) (T2G)
                 (EG) (T2G) (T1U) (T1U) (T1U) (T1G) (T1G) (T2G)
                 (T1G) (T2G) (T2G) (T2G) (T2G) (T2G) (A1G) (T2U)
                 (A2U) (T2U) (T2U) (T1U) (T1U) (T1U) (T2G) (T2G)
                 (EG) (T2G) (EG) (T1U) (T1U) (T1U) (A1G) (T2G)
                 (T1G) (T2G) (T2G) (T1G) (T2G) (T2G) (T1G) (T2G)
                 (T2U) (A2U) (T1U) (T1U) (T2U) (T1U) (T2U) (T2G)
                 (T2G) (T2G) (EG) (EG) (T1U) (T1U) (T1U) (A1G)
                 (T2G) (T1G) (T1G) (T1G) (T2G) (T2G) (T2G) (T2G)
                 (T2G) (T2G) (T2G) (EG) (T2G) (EG) (T2U) (T1U)
                 (T1U) (A2U) (T1U) (T2U) (T2U) (T1U) (T1U) (T1U)
                 (A1G) (?B) (?B) (?B) (?B) (?B) (T2G) (T2G) (T2G)
                 (?B) (T2G) (T2G) (T2G) (EG) (EG) (?A) (?A) (?A)
                 (A2U) (?A) (?A) (?A) (T1U) (T1U) (T1U)
   229 initial guesses have been made.
 Convergence on wavefunction:    0.001000000000000
 Davidson Disk Diagonalization:  ConvIn= 1.00D-03 SkipCon=T Conv= 1.00D-03.
 Max sub-space:   458 roots to seek:   229 dimension of matrix:          229
 Iteration     1 Dimension   229 NMult     0 NNew    229
 CISAX will form   229 AO SS matrices at one time.
 NMat=   229 NSing=   229 JSym2X= 2.
 New state      1 was old state      2
 New state      2 was old state      3
 New state      3 was old state      1
 New state      5 was old state      8
 New state      6 was old state      7
 New state      7 was old state      9
 New state      8 was old state      6
 New state      9 was old state      5
 New state     11 was old state     13
 New state     12 was old state     11
 New state     13 was old state     12
 New state     16 was old state     18
 New state     17 was old state     16
 New state     18 was old state     17
 New state     21 was old state     23
 New state     22 was old state     26
 New state     23 was old state     21
 New state     24 was old state     22
 New state     25 was old state     24
 New state     26 was old state     25
 New state     27 was old state     29
 New state     29 was old state     27
 New state     31 was old state     32
 New state     32 was old state     31
 New state     35 was old state     36
 New state     36 was old state     39
 New state     37 was old state     43
 New state     38 was old state     37
 New state     39 was old state     35
 New state     41 was old state     38
 New state     43 was old state     41
 New state     45 was old state     47
 New state     46 was old state     48
 New state     47 was old state     46
 New state     48 was old state     49
 New state     49 was old state     45
 New state     50 was old state     51
 New state     51 was old state     50
 New state     52 was old state     54
 New state     54 was old state     52
 New state     55 was old state     57
 Excitation Energies [eV] at current iteration:
 Root      1 :    10.205462185417790
 Root      2 :    10.205462185417820
 Root      3 :    10.205462185417930
 Root      4 :    10.205485698007490
 Root      5 :    12.095121168348480
 Root      6 :    12.095121168348530
 Root      7 :    12.095121168348620
 Root      8 :    12.095121168348640
 Root      9 :    12.095121168348640
 Root     10 :    12.095122803779570
 Root     11 :    12.096997100487740
 Root     12 :    12.096997100487910
 Root     13 :    12.096997100487960
 Root     14 :    12.756198303169830
 Root     15 :    12.758435007243390
 Root     16 :    12.758435007243400
 Root     17 :    12.758435007243410
 Root     18 :    12.758435007243420
 Root     19 :    12.758435007243430
 Root     20 :    12.758602116871550
 Root     21 :    12.758602116871660
 Root     22 :    12.758602116871670
 Root     23 :    12.758602116871670
 Root     24 :    12.758602116871670
 Root     25 :    12.758602116871690
 Root     26 :    12.758602116871720
 Root     27 :    12.761536228839150
 Root     28 :    12.761536228839270
 Root     29 :    12.761536228839320
 Root     30 :    13.063082464699580
 Root     31 :    13.063082464699610
 Root     32 :    13.063082464699630
 Root     33 :    13.063082464699640
 Root     34 :    13.063082464699680
 Root     35 :    13.064910848952510
 Root     36 :    13.064910848952530
 Root     37 :    13.064910848952540
 Root     38 :    13.064910848952540
 Root     39 :    13.064910848952550
 Root     40 :    13.064910848952560
 Root     41 :    13.064910848952560
 Root     42 :    13.064910848952590
 Root     43 :    13.064910848952590
 Root     44 :    13.068536348578290
 Root     45 :    13.071726309448260
 Root     46 :    13.071726309448320
 Root     47 :    13.071726309448340
 Root     48 :    13.071726309448340
 Root     49 :    13.071726309448340
 Root     50 :    13.071726309448350
 Root     51 :    13.071726309448440
 Root     52 :    13.081053162021580
 Root     53 :    13.081053162021640
 Root     54 :    13.081053162021740
 Root     55 :    13.232675784397250
 Root     56 :    13.232675784397250
 Root     57 :    13.232675784397260
 Root     58 :    13.232675784397260
 Root     59 :    13.232675784397270
 Root     60 :    13.232675784397280
 Root     61 :    13.232675784397340
 Root     62 :    13.239918749517520
 Root     63 :    13.239918749517540
 Root     64 :    13.239918749517540
 Root     65 :    13.239918749517550
 Root     66 :    13.239918749517550
 Root     67 :    13.247141567861230
 Root     68 :    13.247141567861250
 Root     69 :    13.247141567861250
 Root     70 :    13.247141567861250
 Root     71 :    13.247141567861250
 Root     72 :    13.247141567861250
 Root     73 :    13.247141567861270
 Root     74 :    13.247141567861280
 Root     75 :    13.247141567861290
 Root     76 :    13.264882446788900
 Root     77 :    13.281697316576870
 Root     78 :    13.281697316576890
 Root     79 :    13.281697316576980
 Root     80 :    13.402948414437320
 Root     81 :    13.948117983370040
 Root     82 :    13.948117983370060
 Root     83 :    13.948117983370290
 Root     84 :    13.973328374137560
 Root     85 :    13.973328374137560
 Root     86 :    13.973328374137560
 Root     87 :    13.973328374137570
 Root     88 :    13.973328374137590
 Root     89 :    13.973328374137590
 Root     90 :    13.973328374137620
 Root     91 :    13.973328374137650
 Root     92 :    13.973328374137840
 Root     93 :    14.240295714515770
 Root     94 :    14.240295714515880
 Root     95 :    14.240295714515880
 Root     96 :    14.240295714516040
 Root     97 :    14.240295714516040
 Root     98 :    14.310673973455420
 Root     99 :    14.310673973455530
 Root    100 :    14.310673973455540
 Root    101 :    14.310673973455550
 Root    102 :    14.310673973455550
 Root    103 :    14.310673973455560
 Root    104 :    14.310673973455560
 Root    105 :    14.827125585924410
 Root    106 :    17.331807521283590
 Root    107 :    17.331807521283600
 Root    108 :    17.331807521283620
 Root    109 :    17.331807521283630
 Root    110 :    17.331807521283640
 Root    111 :    17.331807521283700
 Root    112 :    17.331807521283740
 Root    113 :    17.331807521283740
 Root    114 :    17.331807521283760
 Root    115 :    19.565289900518900
 Root    116 :    19.565289900518900
 Root    117 :    19.565289900518910
 Root    118 :    19.565289900518910
 Root    119 :    19.565289900518920
 Root    120 :    19.565289900518970
 Root    121 :    19.565289900519040
 Root    122 :    20.649776734587440
 Root    123 :    20.649776734587460
 Root    124 :    20.649776734587510
 Root    125 :    20.649776734587620
 Root    126 :    20.649776734587670
 Root    127 :    21.697751814001520
 Root    128 :    21.697751814001540
 Root    129 :    21.697751814001660
 Root    130 :    24.941521731279800
 Root    131 :    29.366122327949320
 Root    132 :    29.366122327949340
 Root    133 :    29.366122327949390
 Root    134 :    29.366122327949470
 Root    135 :    29.366122327949490
 Root    136 :    29.366122327949520
 Root    137 :    29.366122327949520
 Root    138 :    29.366122327949580
 Root    139 :    29.366122327949660
 Root    140 :    38.229190253568850
 Root    141 :    38.229190253568870
 Root    142 :    38.229190253568890
 Root    143 :    38.229190253568900
 Root    144 :    38.229190253568940
 Root    145 :    38.229190253569050
 Root    146 :    38.229190253569090
 Root    147 :    42.965581034577110
 Root    148 :    42.965581034577280
 Root    149 :    42.965581034577450
 Root    150 :    42.965581034577470
 Root    151 :    42.965581034577590
 Root    152 :    48.885516658721130
 Root    153 :    48.885516658721300
 Root    154 :    48.885516658721560
 Root    155 :    54.514135933018180
 Root    156 :    69.020440430904130
 Root    157 :    69.020440430904260
 Root    158 :    69.020440430904260
 Root    159 :    69.020440430904320
 Root    160 :    69.020440430904360
 Root    161 :    69.020440430904370
 Root    162 :    69.020440430904390
 Root    163 :    69.020440430904430
 Root    164 :    69.020440430904530
 Root    165 :    99.254100026769750
 Root    166 :    99.254100026769830
 Root    167 :    99.254100026769890
 Root    168 :    99.254100026769920
 Root    169 :    99.254100026770030
 Root    170 :    99.254100026770200
 Root    171 :    99.254100026770220
 Root    172 :   101.645740274527900
 Root    173 :   101.645740274528600
 Root    174 :   101.645740274528700
 Root    175 :   101.645740274528800
 Root    176 :   101.645740274529400
 Root    177 :   125.032505428931300
 Root    178 :   125.032505428932400
 Root    179 :   125.032505428932600
 Root    180 :   139.047907966002200
 Root    181 :   201.609815756853600
 Root    182 :   201.609815756854700
 Root    183 :   201.609815756855000
 Root    184 :   201.609815756855000
 Root    185 :   201.609815756855100
 Root    186 :   201.609815756855300
 Root    187 :   201.609815756855600
 Root    188 :   201.609815756855600
 Root    189 :   201.609815756856100
 Root    190 :   243.854031871335800
 Root    191 :   243.854031871336200
 Root    192 :   243.854031871336500
 Root    193 :   243.854031871336900
 Root    194 :   243.854031871337100
 Root    195 :   252.043261883458500
 Root    196 :   252.043261883458800
 Root    197 :   252.043261883459200
 Root    198 :   252.043261883459300
 Root    199 :   252.043261883460200
 Root    200 :   252.043261883460200
 Root    201 :   252.043261883460500
 Root    202 :   331.876027496627600
 Root    203 :   331.876027496627800
 Root    204 :   331.876027496629800
 Root    205 :   512.506567174882000
 Root    206 :   546.241412618518600
 Root    207 :   546.241412618519000
 Root    208 :   546.241412618520600
 Root    209 :   546.241412618521900
 Root    210 :   546.241412618521900
 Root    211 :   546.241412618523900
 Root    212 :   546.241412618524200
 Root    213 :   546.241412618524600
 Root    214 :   546.241412618526600
 Root    215 :   603.131891674807400
 Root    216 :   603.131891674808200
 Root    217 :   603.131891674809600
 Root    218 :   603.131891674809600
 Root    219 :   603.131891674810600
 Root    220 :   635.412469239199800
 Root    221 :   635.412469239200300
 Root    222 :   635.412469239200400
 Root    223 :   635.412469239201600
 Root    224 :   635.412469239202000
 Root    225 :   635.412469239203100
 Root    226 :   635.412469239203700
 Root    227 :   913.609680794103500
 Root    228 :   913.609680794107100
 Root    229 :   913.609680794108700
 Convergence achieved for final wavefunctions.
 ***********************************************************************
 Excited states from <AA,BB:AA,BB> singles matrix:
 ***********************************************************************
 
 ExtSpn:  IState=     1 X2= 1.000 Y2= 0.000 X2-Y2-1= 4.44D-16
          S2Grnd=  0.750 Ra=  0.000 Rb=  0.000 T=  0.000 S2Ext=  0.000 S2=  0.750
 ExtSpn:  IState=     2 X2= 1.000 Y2= 0.000 X2-Y2-1= 2.89D-15
          S2Grnd=  0.750 Ra=  0.000 Rb=  0.000 T=  0.000 S2Ext=  0.000 S2=  0.750
 ExtSpn:  IState=     3 X2= 1.000 Y2= 0.000 X2-Y2-1= 0.00D+00
          S2Grnd=  0.750 Ra=  0.000 Rb=  0.000 T=  0.000 S2Ext=  0.000 S2=  0.750
 ExtSpn:  IState=     4 X2= 1.000 Y2= 0.000 X2-Y2-1=-2.22D-16
          S2Grnd=  0.750 Ra=  0.000 Rb=  0.000 T=  0.000 S2Ext=  0.000 S2=  0.750
 ExtSpn:  IState=     5 X2= 1.000 Y2= 0.000 X2-Y2-1=-1.44D-15
          S2Grnd=  0.750 Ra=  0.000 Rb=  0.000 T=  0.000 S2Ext=  0.000 S2=  0.750
 ExtSpn:  IState=     6 X2= 1.000 Y2= 0.000 X2-Y2-1= 1.11D-15
          S2Grnd=  0.750 Ra=  0.000 Rb=  0.000 T=  0.000 S2Ext=  0.000 S2=  0.750
 ExtSpn:  IState=     7 X2= 1.000 Y2= 0.000 X2-Y2-1= 0.00D+00
          S2Grnd=  0.750 Ra=  0.000 Rb=  0.000 T=  0.000 S2Ext=  0.000 S2=  0.750
 ExtSpn:  IState=     8 X2= 1.000 Y2= 0.000 X2-Y2-1=-7.77D-16
          S2Grnd=  0.750 Ra=  0.000 Rb=  0.000 T=  0.000 S2Ext=  0.000 S2=  0.750
 ExtSpn:  IState=     9 X2= 1.000 Y2= 0.000 X2-Y2-1= 6.66D-16
          S2Grnd=  0.750 Ra=  0.000 Rb=  0.000 T=  0.000 S2Ext=  0.000 S2=  0.750
 ExtSpn:  IState=    10 X2= 1.000 Y2= 0.000 X2-Y2-1=-3.33D-16
          S2Grnd=  0.750 Ra=  0.000 Rb=  0.000 T=  0.000 S2Ext=  0.000 S2=  0.750
 ExtSpn:  IState=    11 X2= 1.000 Y2= 0.000 X2-Y2-1=-5.55D-16
          S2Grnd=  0.750 Ra=  0.000 Rb=  0.000 T=  0.000 S2Ext=  0.000 S2=  0.750
 ExtSpn:  IState=    12 X2= 1.000 Y2= 0.000 X2-Y2-1=-1.67D-15
          S2Grnd=  0.750 Ra=  0.000 Rb=  0.000 T=  0.000 S2Ext=  0.000 S2=  0.750
 ExtSpn:  IState=    13 X2= 1.000 Y2= 0.000 X2-Y2-1=-6.66D-16
          S2Grnd=  0.750 Ra=  0.000 Rb=  0.000 T=  0.000 S2Ext=  0.000 S2=  0.750
 ExtSpn:  IState=    14 X2= 1.000 Y2= 0.000 X2-Y2-1=-5.55D-16
          S2Grnd=  0.750 Ra=  0.000 Rb=  0.000 T=  0.000 S2Ext=  0.000 S2=  0.750
 ExtSpn:  IState=    15 X2= 1.000 Y2= 0.000 X2-Y2-1= 2.22D-16
          S2Grnd=  0.750 Ra=  0.000 Rb=  0.000 T=  0.000 S2Ext=  0.000 S2=  0.750
 ExtSpn:  IState=    16 X2= 1.000 Y2= 0.000 X2-Y2-1=-1.11D-15
          S2Grnd=  0.750 Ra=  0.000 Rb=  0.000 T=  0.000 S2Ext=  0.000 S2=  0.750
 ExtSpn:  IState=    17 X2= 1.000 Y2= 0.000 X2-Y2-1= 0.00D+00
          S2Grnd=  0.750 Ra=  0.000 Rb=  0.000 T=  0.000 S2Ext=  0.000 S2=  0.750
 ExtSpn:  IState=    18 X2= 1.000 Y2= 0.000 X2-Y2-1=-4.44D-16
          S2Grnd=  0.750 Ra=  0.000 Rb=  0.000 T=  0.000 S2Ext=  0.000 S2=  0.750
 ExtSpn:  IState=    19 X2= 1.000 Y2= 0.000 X2-Y2-1= 6.66D-16
          S2Grnd=  0.750 Ra=  0.000 Rb=  0.000 T=  0.000 S2Ext=  0.000 S2=  0.750
 ExtSpn:  IState=    20 X2= 1.000 Y2= 0.000 X2-Y2-1= 4.44D-16
          S2Grnd=  0.750 Ra=  0.000 Rb=  0.000 T=  0.000 S2Ext=  0.000 S2=  0.750
 ExtSpn:  IState=    21 X2= 1.000 Y2= 0.000 X2-Y2-1=-1.11D-16
          S2Grnd=  0.750 Ra=  0.000 Rb=  0.000 T=  0.000 S2Ext=  0.000 S2=  0.750
 ExtSpn:  IState=    22 X2= 1.000 Y2= 0.000 X2-Y2-1=-1.33D-15
          S2Grnd=  0.750 Ra=  0.000 Rb=  0.000 T=  0.000 S2Ext=  0.000 S2=  0.750
 ExtSpn:  IState=    23 X2= 1.000 Y2= 0.000 X2-Y2-1=-1.11D-16
          S2Grnd=  0.750 Ra=  0.000 Rb=  0.000 T=  0.000 S2Ext=  0.000 S2=  0.750
 ExtSpn:  IState=    24 X2= 1.000 Y2= 0.000 X2-Y2-1=-2.22D-15
          S2Grnd=  0.750 Ra=  0.000 Rb=  0.000 T=  0.000 S2Ext=  0.000 S2=  0.750
 ExtSpn:  IState=    25 X2= 1.000 Y2= 0.000 X2-Y2-1= 4.44D-16
          S2Grnd=  0.750 Ra=  0.000 Rb=  0.000 T=  0.000 S2Ext=  0.000 S2=  0.750
 ExtSpn:  IState=    26 X2= 1.000 Y2= 0.000 X2-Y2-1= 2.22D-16
          S2Grnd=  0.750 Ra=  0.000 Rb=  0.000 T=  0.000 S2Ext=  0.000 S2=  0.750
 ExtSpn:  IState=    27 X2= 1.000 Y2= 0.000 X2-Y2-1= 6.66D-16
          S2Grnd=  0.750 Ra=  0.000 Rb=  0.000 T=  0.000 S2Ext=  0.000 S2=  0.750
 ExtSpn:  IState=    28 X2= 1.000 Y2= 0.000 X2-Y2-1=-4.44D-16
          S2Grnd=  0.750 Ra=  0.000 Rb=  0.000 T=  0.000 S2Ext=  0.000 S2=  0.750
 ExtSpn:  IState=    29 X2= 1.000 Y2= 0.000 X2-Y2-1= 4.44D-16
          S2Grnd=  0.750 Ra=  0.000 Rb=  0.000 T=  0.000 S2Ext=  0.000 S2=  0.750
 ExtSpn:  IState=    30 X2= 1.000 Y2= 0.000 X2-Y2-1=-7.77D-16
          S2Grnd=  0.750 Ra=  0.000 Rb=  0.000 T=  0.000 S2Ext=  0.000 S2=  0.750
 ExtSpn:  IState=    31 X2= 1.000 Y2= 0.000 X2-Y2-1= 1.55D-15
          S2Grnd=  0.750 Ra=  0.000 Rb=  0.000 T=  0.000 S2Ext=  0.000 S2=  0.750
 ExtSpn:  IState=    32 X2= 1.000 Y2= 0.000 X2-Y2-1= 1.33D-15
          S2Grnd=  0.750 Ra=  0.000 Rb=  0.000 T=  0.000 S2Ext=  0.000 S2=  0.750
 ExtSpn:  IState=    33 X2= 1.000 Y2= 0.000 X2-Y2-1=-6.66D-16
          S2Grnd=  0.750 Ra=  0.000 Rb=  0.000 T=  0.000 S2Ext=  0.000 S2=  0.750
 ExtSpn:  IState=    34 X2= 1.000 Y2= 0.000 X2-Y2-1= 4.44D-16
          S2Grnd=  0.750 Ra=  0.000 Rb=  0.000 T=  0.000 S2Ext=  0.000 S2=  0.750
 ExtSpn:  IState=    35 X2= 1.000 Y2= 0.000 X2-Y2-1=-4.44D-16
          S2Grnd=  0.750 Ra=  0.000 Rb=  0.000 T=  0.000 S2Ext=  0.000 S2=  0.750
 ExtSpn:  IState=    36 X2= 1.000 Y2= 0.000 X2-Y2-1= 0.00D+00
          S2Grnd=  0.750 Ra=  0.000 Rb=  0.000 T=  0.000 S2Ext=  0.000 S2=  0.750
 ExtSpn:  IState=    37 X2= 1.000 Y2= 0.000 X2-Y2-1= 2.22D-16
          S2Grnd=  0.750 Ra=  0.000 Rb=  0.000 T=  0.000 S2Ext=  0.000 S2=  0.750
 ExtSpn:  IState=    38 X2= 1.000 Y2= 0.000 X2-Y2-1=-4.44D-16
          S2Grnd=  0.750 Ra=  0.000 Rb=  0.000 T=  0.000 S2Ext=  0.000 S2=  0.750
 ExtSpn:  IState=    39 X2= 1.000 Y2= 0.000 X2-Y2-1=-1.11D-16
          S2Grnd=  0.750 Ra=  0.000 Rb=  0.000 T=  0.000 S2Ext=  0.000 S2=  0.750
 ExtSpn:  IState=    40 X2= 1.000 Y2= 0.000 X2-Y2-1= 1.55D-15
          S2Grnd=  0.750 Ra=  0.000 Rb=  0.000 T=  0.000 S2Ext=  0.000 S2=  0.750
 ExtSpn:  IState=    41 X2= 1.000 Y2= 0.000 X2-Y2-1=-2.22D-16
          S2Grnd=  0.750 Ra=  0.000 Rb=  0.000 T=  0.000 S2Ext=  0.000 S2=  0.750
 ExtSpn:  IState=    42 X2= 1.000 Y2= 0.000 X2-Y2-1=-4.44D-16
          S2Grnd=  0.750 Ra=  0.000 Rb=  0.000 T=  0.000 S2Ext=  0.000 S2=  0.750
 ExtSpn:  IState=    43 X2= 1.000 Y2= 0.000 X2-Y2-1=-1.44D-15
          S2Grnd=  0.750 Ra=  0.000 Rb=  0.000 T=  0.000 S2Ext=  0.000 S2=  0.750
 ExtSpn:  IState=    44 X2= 1.000 Y2= 0.000 X2-Y2-1=-6.66D-16
          S2Grnd=  0.750 Ra=  0.000 Rb=  0.000 T=  0.000 S2Ext=  0.000 S2=  0.750
 ExtSpn:  IState=    45 X2= 1.000 Y2= 0.000 X2-Y2-1=-1.11D-16
          S2Grnd=  0.750 Ra=  0.000 Rb=  0.000 T=  0.000 S2Ext=  0.000 S2=  0.750
 ExtSpn:  IState=    46 X2= 1.000 Y2= 0.000 X2-Y2-1=-1.11D-16
          S2Grnd=  0.750 Ra=  0.000 Rb=  0.000 T=  0.000 S2Ext=  0.000 S2=  0.750
 ExtSpn:  IState=    47 X2= 1.000 Y2= 0.000 X2-Y2-1=-5.55D-16
          S2Grnd=  0.750 Ra=  0.000 Rb=  0.000 T=  0.000 S2Ext=  0.000 S2=  0.750
 ExtSpn:  IState=    48 X2= 1.000 Y2= 0.000 X2-Y2-1=-1.22D-15
          S2Grnd=  0.750 Ra=  0.000 Rb=  0.000 T=  0.000 S2Ext=  0.000 S2=  0.750
 ExtSpn:  IState=    49 X2= 1.000 Y2= 0.000 X2-Y2-1=-1.78D-15
          S2Grnd=  0.750 Ra=  0.000 Rb=  0.000 T=  0.000 S2Ext=  0.000 S2=  0.750
 ExtSpn:  IState=    50 X2= 1.000 Y2= 0.000 X2-Y2-1=-4.44D-16
          S2Grnd=  0.750 Ra=  0.000 Rb=  0.000 T=  0.000 S2Ext=  0.000 S2=  0.750
 ExtSpn:  IState=    51 X2= 1.000 Y2= 0.000 X2-Y2-1= 8.88D-16
          S2Grnd=  0.750 Ra=  0.000 Rb=  0.000 T=  0.000 S2Ext=  0.000 S2=  0.750
 ExtSpn:  IState=    52 X2= 1.000 Y2= 0.000 X2-Y2-1= 2.22D-15
          S2Grnd=  0.750 Ra=  0.000 Rb=  0.000 T=  0.000 S2Ext=  0.000 S2=  0.750
 ExtSpn:  IState=    53 X2= 1.000 Y2= 0.000 X2-Y2-1=-2.22D-15
          S2Grnd=  0.750 Ra=  0.000 Rb=  0.000 T=  0.000 S2Ext=  0.000 S2=  0.750
 ExtSpn:  IState=    54 X2= 1.000 Y2= 0.000 X2-Y2-1= 0.00D+00
          S2Grnd=  0.750 Ra=  0.000 Rb=  0.000 T=  0.000 S2Ext=  0.000 S2=  0.750
 ExtSpn:  IState=    55 X2= 1.000 Y2= 0.000 X2-Y2-1=-7.77D-16
          S2Grnd=  0.750 Ra=  0.000 Rb=  0.000 T=  0.000 S2Ext=  0.000 S2=  0.750
 1PDM for each excited state written to RWF  633
 Ground to excited state transition densities written to RWF  633
 Ground to excited state transition electric dipole moments (Au):
       state          X           Y           Z        Dip. S.      Osc.
         1         0.0000     -0.0202     -0.7443      0.5544      0.1386
         2         0.0000     -0.7443      0.0202      0.5544      0.1386
         3        -0.7446      0.0000      0.0000      0.5544      0.1386
         4         0.0000      0.0000      0.0000      0.0000      0.0000
         5         0.0000      0.0000      0.0000      0.0000      0.0000
         6         0.0000      0.0000      0.0000      0.0000      0.0000
         7         0.0000      0.0000      0.0000      0.0000      0.0000
         8         0.0000      0.0000      0.0000      0.0000      0.0000
         9         0.0000      0.0000      0.0000      0.0000      0.0000
        10         0.0000      0.0000      0.0000      0.0000      0.0000
        11         0.0000     -0.0119      0.2960      0.0878      0.0260
        12         0.0000      0.2960      0.0119      0.0878      0.0260
        13         0.2963      0.0000      0.0000      0.0878      0.0260
        14         0.0000      0.0000      0.0000      0.0000      0.0000
        15         0.0000      0.0000      0.0000      0.0000      0.0000
        16         0.0000      0.0000      0.0000      0.0000      0.0000
        17         0.0000      0.0000      0.0000      0.0000      0.0000
        18         0.0000      0.0000      0.0000      0.0000      0.0000
        19         0.0000      0.0000      0.0000      0.0000      0.0000
        20         0.0000      0.0000      0.0000      0.0000      0.0000
        21         0.0000      0.0000      0.0000      0.0000      0.0000
        22         0.0000      0.0000      0.0000      0.0000      0.0000
        23         0.0000      0.0000      0.0000      0.0000      0.0000
        24         0.0000      0.0000      0.0000      0.0000      0.0000
        25         0.0000      0.0000      0.0000      0.0000      0.0000
        26         0.0000      0.0000      0.0000      0.0000      0.0000
        27         0.0000     -0.0025     -0.1668      0.0278      0.0087
        28         0.0000     -0.1668      0.0025      0.0278      0.0087
        29        -0.1668      0.0000      0.0000      0.0278      0.0087
        30         0.0000      0.0000      0.0000      0.0000      0.0000
        31         0.0000      0.0000      0.0000      0.0000      0.0000
        32         0.0000      0.0000      0.0000      0.0000      0.0000
        33         0.0000      0.0000      0.0000      0.0000      0.0000
        34         0.0000      0.0000      0.0000      0.0000      0.0000
        35         0.0000      0.0000      0.0000      0.0000      0.0000
        36         0.0000      0.0000      0.0000      0.0000      0.0000
        37         0.0000      0.0000      0.0000      0.0000      0.0000
        38         0.0000      0.0000      0.0000      0.0000      0.0000
        39         0.0000      0.0000      0.0000      0.0000      0.0000
        40         0.0000      0.0000      0.0000      0.0000      0.0000
        41         0.0000      0.0000      0.0000      0.0000      0.0000
        42         0.0000      0.0000      0.0000      0.0000      0.0000
        43         0.0000      0.0000      0.0000      0.0000      0.0000
        44         0.0000      0.0000      0.0000      0.0000      0.0000
        45         0.0000      0.0000      0.0000      0.0000      0.0000
        46         0.0000      0.0000      0.0000      0.0000      0.0000
        47         0.0000      0.0000      0.0000      0.0000      0.0000
        48         0.0000      0.0000      0.0000      0.0000      0.0000
        49         0.0000      0.0000      0.0000      0.0000      0.0000
        50         0.0000      0.0000      0.0000      0.0000      0.0000
        51         0.0000      0.0000      0.0000      0.0000      0.0000
        52         0.0000     -0.0028     -0.0920      0.0085      0.0027
        53         0.0000     -0.0920      0.0028      0.0085      0.0027
        54        -0.0920      0.0000      0.0000      0.0085      0.0027
        55         0.0000      0.0000      0.0000      0.0000      0.0000
 Ground to excited state transition velocity dipole moments (Au):
       state          X           Y           Z        Dip. S.      Osc.
         1         0.0000      0.0076      0.2792      0.0780      0.1387
         2         0.0000      0.2792     -0.0076      0.0780      0.1387
         3         0.2793      0.0000      0.0000      0.0780      0.1387
         4         0.0000      0.0000      0.0000      0.0000      0.0000
         5         0.0000      0.0000      0.0000      0.0000      0.0000
         6         0.0000      0.0000      0.0000      0.0000      0.0000
         7         0.0000      0.0000      0.0000      0.0000      0.0000
         8         0.0000      0.0000      0.0000      0.0000      0.0000
         9         0.0000      0.0000      0.0000      0.0000      0.0000
        10         0.0000      0.0000      0.0000      0.0000      0.0000
        11         0.0000      0.0053     -0.1317      0.0174      0.0261
        12         0.0000     -0.1317     -0.0053      0.0174      0.0261
        13        -0.1318      0.0000      0.0000      0.0174      0.0261
        14         0.0000      0.0000      0.0000      0.0000      0.0000
        15         0.0000      0.0000      0.0000      0.0000      0.0000
        16         0.0000      0.0000      0.0000      0.0000      0.0000
        17         0.0000      0.0000      0.0000      0.0000      0.0000
        18         0.0000      0.0000      0.0000      0.0000      0.0000
        19         0.0000      0.0000      0.0000      0.0000      0.0000
        20         0.0000      0.0000      0.0000      0.0000      0.0000
        21         0.0000      0.0000      0.0000      0.0000      0.0000
        22         0.0000      0.0000      0.0000      0.0000      0.0000
        23         0.0000      0.0000      0.0000      0.0000      0.0000
        24         0.0000      0.0000      0.0000      0.0000      0.0000
        25         0.0000      0.0000      0.0000      0.0000      0.0000
        26         0.0000      0.0000      0.0000      0.0000      0.0000
        27         0.0000      0.0012      0.0784      0.0061      0.0087
        28         0.0000      0.0784     -0.0012      0.0061      0.0087
        29         0.0784      0.0000      0.0000      0.0061      0.0087
        30         0.0000      0.0000      0.0000      0.0000      0.0000
        31         0.0000      0.0000      0.0000      0.0000      0.0000
        32         0.0000      0.0000      0.0000      0.0000      0.0000
        33         0.0000      0.0000      0.0000      0.0000      0.0000
        34         0.0000      0.0000      0.0000      0.0000      0.0000
        35         0.0000      0.0000      0.0000      0.0000      0.0000
        36         0.0000      0.0000      0.0000      0.0000      0.0000
        37         0.0000      0.0000      0.0000      0.0000      0.0000
        38         0.0000      0.0000      0.0000      0.0000      0.0000
        39         0.0000      0.0000      0.0000      0.0000      0.0000
        40         0.0000      0.0000      0.0000      0.0000      0.0000
        41         0.0000      0.0000      0.0000      0.0000      0.0000
        42         0.0000      0.0000      0.0000      0.0000      0.0000
        43         0.0000      0.0000      0.0000      0.0000      0.0000
        44         0.0000      0.0000      0.0000      0.0000      0.0000
        45         0.0000      0.0000      0.0000      0.0000      0.0000
        46         0.0000      0.0000      0.0000      0.0000      0.0000
        47         0.0000      0.0000      0.0000      0.0000      0.0000
        48         0.0000      0.0000      0.0000      0.0000      0.0000
        49         0.0000      0.0000      0.0000      0.0000      0.0000
        50         0.0000      0.0000      0.0000      0.0000      0.0000
        51         0.0000      0.0000      0.0000      0.0000      0.0000
        52         0.0000      0.0014      0.0444      0.0020      0.0027
        53         0.0000      0.0444     -0.0014      0.0020      0.0027
        54         0.0445      0.0000      0.0000      0.0020      0.0027
        55         0.0000      0.0000      0.0000      0.0000      0.0000
 Ground to excited state transition magnetic dipole moments (Au):
       state          X           Y           Z
         1         0.0000      0.0000      0.0000
         2         0.0000      0.0000      0.0000
         3         0.0000      0.0000      0.0000
         4         0.0000      0.0000      0.0000
         5         0.0000      0.0000      0.0000
         6         0.0000      0.0000      0.0000
         7         0.0000      0.0000      0.0000
         8         0.0000      0.0000      0.0000
         9         0.0000      0.0000      0.0000
        10         0.0000      0.0000      0.0000
        11         0.0000      0.0000      0.0000
        12         0.0000      0.0000      0.0000
        13         0.0000      0.0000      0.0000
        14         0.0000      0.0000      0.0000
        15         0.0000      0.0000      0.0000
        16         0.0000      0.0000      0.0000
        17         0.0000      0.0000      0.0000
        18         0.0000      0.0000      0.0000
        19         0.0000      0.0000      0.0000
        20         0.0000      0.0000      0.0000
        21         0.0000      0.0000      0.0000
        22         0.0000      0.0000      0.0000
        23         0.0000      0.0000      0.0000
        24         0.0000      0.0000      0.0000
        25         0.0000      0.0000      0.0000
        26         0.0000      0.0000      0.0000
        27         0.0000      0.0000      0.0000
        28         0.0000      0.0000      0.0000
        29         0.0000      0.0000      0.0000
        30         0.0000      0.0000      0.0000
        31         0.0000      0.0000      0.0000
        32         0.0000      0.0000      0.0000
        33         0.0000      0.0000      0.0000
        34         0.0000      0.0000      0.0000
        35         0.0000      0.0000      0.0000
        36         0.0000      0.0000      0.0000
        37         0.0000      0.0000      0.0000
        38         0.0000      0.0000      0.0000
        39         0.0000      0.0000      0.0000
        40         0.0000      0.0000      0.0000
        41         0.0000      0.0000      0.0000
        42         0.0000      0.0000      0.0000
        43         0.0000      0.0000      0.0000
        44         0.0000      0.0000      0.0000
        45         0.0000      0.0000      0.0000
        46         0.0000      0.0000      0.0000
        47         0.0000      0.0000      0.0000
        48         0.0000      0.0000      0.0000
        49         0.0000      0.0000      0.0000
        50         0.0000      0.0000      0.0000
        51         0.0000      0.0000      0.0000
        52         0.0000      0.0000      0.0000
        53         0.0000      0.0000      0.0000
        54         0.0000      0.0000      0.0000
        55         0.0000      0.0000      0.0000
 Ground to excited state transition velocity quadrupole moments (Au):
       state          XX          YY          ZZ          XY          XZ          YZ
         1         0.0000      0.0000      0.0000      0.0000      0.0000      0.0000
         2         0.0000      0.0000      0.0000      0.0000      0.0000      0.0000
         3         0.0000      0.0000      0.0000      0.0000      0.0000      0.0000
         4         0.3719      0.3719      0.3719      0.0000      0.0000      0.0000
         5         0.0941     -0.0829     -0.0112      0.0009      0.1782     -0.0032
         6        -0.0182     -0.0211      0.0393      0.0011      0.0047      0.1962
         7         0.1049     -0.2127      0.1078      0.0006     -0.0741     -0.0156
         8         0.1808      0.0182     -0.1990      0.0016     -0.0492      0.0305
         9        -0.0021      0.0010      0.0011      0.1992     -0.0002     -0.0013
        10        -0.1615     -0.1615     -0.1615      0.0000      0.0000      0.0000
        11         0.0000      0.0000      0.0000      0.0000      0.0000      0.0000
        12         0.0000      0.0000      0.0000      0.0000      0.0000      0.0000
        13         0.0000      0.0000      0.0000      0.0000      0.0000      0.0000
        14        -0.0965     -0.0965     -0.0965      0.0000      0.0000      0.0000
        15        -0.0301     -0.0433      0.0734     -0.0925     -0.0002      0.0811
        16        -0.0208      0.0943     -0.0736     -0.0931      0.0230     -0.0515
        17         0.0847     -0.1100      0.0253     -0.0438     -0.0414     -0.0751
        18        -0.1247      0.0063      0.1185      0.0086      0.0094     -0.0652
        19        -0.0396      0.0522     -0.0127     -0.0018     -0.1300      0.0099
        20         0.0000      0.0000      0.0000      0.0000      0.0000      0.0000
        21         0.0000      0.0000      0.0000      0.0000      0.0000      0.0000
        22         0.0000      0.0000      0.0000      0.0000      0.0000      0.0000
        23         0.0000      0.0000      0.0000      0.0000      0.0000      0.0000
        24         0.0000      0.0000      0.0000      0.0000      0.0000      0.0000
        25         0.0000      0.0000      0.0000      0.0000      0.0000      0.0000
        26         0.0000      0.0000      0.0000      0.0000      0.0000      0.0000
        27         0.0000      0.0000      0.0000      0.0000      0.0000      0.0000
        28         0.0000      0.0000      0.0000      0.0000      0.0000      0.0000
        29         0.0000      0.0000      0.0000      0.0000      0.0000      0.0000
        30         0.0001     -0.0037      0.0036     -0.0983      0.0002      0.0032
        31        -0.0334      0.0250      0.0084     -0.0029      0.0441     -0.0827
        32        -0.0733      0.0460      0.0272      0.0014      0.0538      0.0517
        33         0.0132      0.0909     -0.1041     -0.0035     -0.0061      0.0027
        34        -0.0792      0.0436      0.0356     -0.0008     -0.0694     -0.0126
        35         0.0000      0.0000      0.0000      0.0000      0.0000      0.0000
        36         0.0000      0.0000      0.0000      0.0000      0.0000      0.0000
        37         0.0000      0.0000      0.0000      0.0000      0.0000      0.0000
        38         0.0000      0.0000      0.0000      0.0000      0.0000      0.0000
        39         0.0000      0.0000      0.0000      0.0000      0.0000      0.0000
        40         0.0000      0.0000      0.0000      0.0000      0.0000      0.0000
        41         0.0000      0.0000      0.0000      0.0000      0.0000      0.0000
        42         0.0000      0.0000      0.0000      0.0000      0.0000      0.0000
        43         0.0000      0.0000      0.0000      0.0000      0.0000      0.0000
        44         0.0559      0.0559      0.0559      0.0000      0.0000      0.0000
        45         0.0000      0.0000      0.0000      0.0000      0.0000      0.0000
        46         0.0000      0.0000      0.0000      0.0000      0.0000      0.0000
        47         0.0000      0.0000      0.0000      0.0000      0.0000      0.0000
        48         0.0000      0.0000      0.0000      0.0000      0.0000      0.0000
        49         0.0000      0.0000      0.0000      0.0000      0.0000      0.0000
        50         0.0000      0.0000      0.0000      0.0000      0.0000      0.0000
        51         0.0000      0.0000      0.0000      0.0000      0.0000      0.0000
        52         0.0000      0.0000      0.0000      0.0000      0.0000      0.0000
        53         0.0000      0.0000      0.0000      0.0000      0.0000      0.0000
        54         0.0000      0.0000      0.0000      0.0000      0.0000      0.0000
        55         0.0000      0.0000      0.0000      0.0000      0.0000      0.0000
 <0|del|b> * <b|rxdel|0> + <0|del|b> * <b|delr+rdel|0>
 Rotatory Strengths (R) in cgs (10**-40 erg-esu-cm/Gauss)
       state          XX          YY          ZZ    R(velocity)    E-M Angle
         1         0.0000      0.0000      0.0000      0.0000       90.00
         2         0.0000      0.0000      0.0000      0.0000       90.00
         3         0.0000      0.0000      0.0000      0.0000       90.00
         4         0.0000      0.0000      0.0000      0.0000       90.00
         5         0.0000      0.0000      0.0000      0.0000       90.00
         6         0.0000      0.0000      0.0000      0.0000       90.00
         7         0.0000      0.0000      0.0000      0.0000       90.00
         8         0.0000      0.0000      0.0000      0.0000       90.00
         9         0.0000      0.0000      0.0000      0.0000       90.00
        10         0.0000      0.0000      0.0000      0.0000       90.00
        11         0.0000      0.0000      0.0000      0.0000       90.00
        12         0.0000      0.0000      0.0000      0.0000       90.00
        13         0.0000      0.0000      0.0000      0.0000       90.00
        14         0.0000      0.0000      0.0000      0.0000       90.00
        15         0.0000      0.0000      0.0000      0.0000       90.00
        16         0.0000      0.0000      0.0000      0.0000       90.00
        17         0.0000      0.0000      0.0000      0.0000       90.00
        18         0.0000      0.0000      0.0000      0.0000       90.00
        19         0.0000      0.0000      0.0000      0.0000       90.00
        20         0.0000      0.0000      0.0000      0.0000       90.00
        21         0.0000      0.0000      0.0000      0.0000       90.00
        22         0.0000      0.0000      0.0000      0.0000       90.00
        23         0.0000      0.0000      0.0000      0.0000       90.00
        24         0.0000      0.0000      0.0000      0.0000       90.00
        25         0.0000      0.0000      0.0000      0.0000       90.00
        26         0.0000      0.0000      0.0000      0.0000       90.00
        27         0.0000      0.0000      0.0000      0.0000       90.00
        28         0.0000      0.0000      0.0000      0.0000       90.00
        29         0.0000      0.0000      0.0000      0.0000       90.00
        30         0.0000      0.0000      0.0000      0.0000       90.00
        31         0.0000      0.0000      0.0000      0.0000       90.00
        32         0.0000      0.0000      0.0000      0.0000       90.00
        33         0.0000      0.0000      0.0000      0.0000       90.00
        34         0.0000      0.0000      0.0000      0.0000       90.00
        35         0.0000      0.0000      0.0000      0.0000       90.00
        36         0.0000      0.0000      0.0000      0.0000       90.00
        37         0.0000      0.0000      0.0000      0.0000       90.00
        38         0.0000      0.0000      0.0000      0.0000       90.00
        39         0.0000      0.0000      0.0000      0.0000       90.00
        40         0.0000      0.0000      0.0000      0.0000       90.00
        41         0.0000      0.0000      0.0000      0.0000       90.00
        42         0.0000      0.0000      0.0000      0.0000       90.00
        43         0.0000      0.0000      0.0000      0.0000       90.00
        44         0.0000      0.0000      0.0000      0.0000       90.00
        45         0.0000      0.0000      0.0000      0.0000       90.00
        46         0.0000      0.0000      0.0000      0.0000       90.00
        47         0.0000      0.0000      0.0000      0.0000       90.00
        48         0.0000      0.0000      0.0000      0.0000       90.00
        49         0.0000      0.0000      0.0000      0.0000       90.00
        50         0.0000      0.0000      0.0000      0.0000       90.00
        51         0.0000      0.0000      0.0000      0.0000       90.00
        52         0.0000      0.0000      0.0000      0.0000       90.00
        53         0.0000      0.0000      0.0000      0.0000       90.00
        54         0.0000      0.0000      0.0000      0.0000       90.00
        55         0.0000      0.0000      0.0000      0.0000       90.00
 1/2[<0|r|b>*<b|rxdel|0> + (<0|rxdel|b>*<b|r|0>)*]
 Rotatory Strengths (R) in cgs (10**-40 erg-esu-cm/Gauss)
       state          XX          YY          ZZ     R(length)
         1         0.0000      0.0000      0.0000      0.0000
         2         0.0000      0.0000      0.0000      0.0000
         3         0.0000      0.0000      0.0000      0.0000
         4         0.0000      0.0000      0.0000      0.0000
         5         0.0000      0.0000      0.0000      0.0000
         6         0.0000      0.0000      0.0000      0.0000
         7         0.0000      0.0000      0.0000      0.0000
         8         0.0000      0.0000      0.0000      0.0000
         9         0.0000      0.0000      0.0000      0.0000
        10         0.0000      0.0000      0.0000      0.0000
        11         0.0000      0.0000      0.0000      0.0000
        12         0.0000      0.0000      0.0000      0.0000
        13         0.0000      0.0000      0.0000      0.0000
        14         0.0000      0.0000      0.0000      0.0000
        15         0.0000      0.0000      0.0000      0.0000
        16         0.0000      0.0000      0.0000      0.0000
        17         0.0000      0.0000      0.0000      0.0000
        18         0.0000      0.0000      0.0000      0.0000
        19         0.0000      0.0000      0.0000      0.0000
        20         0.0000      0.0000      0.0000      0.0000
        21         0.0000      0.0000      0.0000      0.0000
        22         0.0000      0.0000      0.0000      0.0000
        23         0.0000      0.0000      0.0000      0.0000
        24         0.0000      0.0000      0.0000      0.0000
        25         0.0000      0.0000      0.0000      0.0000
        26         0.0000      0.0000      0.0000      0.0000
        27         0.0000      0.0000      0.0000      0.0000
        28         0.0000      0.0000      0.0000      0.0000
        29         0.0000      0.0000      0.0000      0.0000
        30         0.0000      0.0000      0.0000      0.0000
        31         0.0000      0.0000      0.0000      0.0000
        32         0.0000      0.0000      0.0000      0.0000
        33         0.0000      0.0000      0.0000      0.0000
        34         0.0000      0.0000      0.0000      0.0000
        35         0.0000      0.0000      0.0000      0.0000
        36         0.0000      0.0000      0.0000      0.0000
        37         0.0000      0.0000      0.0000      0.0000
        38         0.0000      0.0000      0.0000      0.0000
        39         0.0000      0.0000      0.0000      0.0000
        40         0.0000      0.0000      0.0000      0.0000
        41         0.0000      0.0000      0.0000      0.0000
        42         0.0000      0.0000      0.0000      0.0000
        43         0.0000      0.0000      0.0000      0.0000
        44         0.0000      0.0000      0.0000      0.0000
        45         0.0000      0.0000      0.0000      0.0000
        46         0.0000      0.0000      0.0000      0.0000
        47         0.0000      0.0000      0.0000      0.0000
        48         0.0000      0.0000      0.0000      0.0000
        49         0.0000      0.0000      0.0000      0.0000
        50         0.0000      0.0000      0.0000      0.0000
        51         0.0000      0.0000      0.0000      0.0000
        52         0.0000      0.0000      0.0000      0.0000
        53         0.0000      0.0000      0.0000      0.0000
        54         0.0000      0.0000      0.0000      0.0000
        55         0.0000      0.0000      0.0000      0.0000
  1/2[<0|del|b>*<b|r|0> + (<0|r|b>*<b|del|0>)*] (Au)
       state          X           Y           Z        Dip. S.   Osc.(frdel)
         1         0.0000     -0.0002     -0.2078      0.2080      0.1386
         2         0.0000     -0.2078     -0.0002      0.2080      0.1386
         3        -0.2080      0.0000      0.0000      0.2080      0.1386
         4         0.0000      0.0000      0.0000      0.0000      0.0000
         5         0.0000      0.0000      0.0000      0.0000      0.0000
         6         0.0000      0.0000      0.0000      0.0000      0.0000
         7         0.0000      0.0000      0.0000      0.0000      0.0000
         8         0.0000      0.0000      0.0000      0.0000      0.0000
         9         0.0000      0.0000      0.0000      0.0000      0.0000
        10         0.0000      0.0000      0.0000      0.0000      0.0000
        11         0.0000     -0.0001     -0.0390      0.0391      0.0260
        12         0.0000     -0.0390     -0.0001      0.0391      0.0260
        13        -0.0391      0.0000      0.0000      0.0391      0.0260
        14         0.0000      0.0000      0.0000      0.0000      0.0000
        15         0.0000      0.0000      0.0000      0.0000      0.0000
        16         0.0000      0.0000      0.0000      0.0000      0.0000
        17         0.0000      0.0000      0.0000      0.0000      0.0000
        18         0.0000      0.0000      0.0000      0.0000      0.0000
        19         0.0000      0.0000      0.0000      0.0000      0.0000
        20         0.0000      0.0000      0.0000      0.0000      0.0000
        21         0.0000      0.0000      0.0000      0.0000      0.0000
        22         0.0000      0.0000      0.0000      0.0000      0.0000
        23         0.0000      0.0000      0.0000      0.0000      0.0000
        24         0.0000      0.0000      0.0000      0.0000      0.0000
        25         0.0000      0.0000      0.0000      0.0000      0.0000
        26         0.0000      0.0000      0.0000      0.0000      0.0000
        27         0.0000      0.0000     -0.0131      0.0131      0.0087
        28         0.0000     -0.0131      0.0000      0.0131      0.0087
        29        -0.0131      0.0000      0.0000      0.0131      0.0087
        30         0.0000      0.0000      0.0000      0.0000      0.0000
        31         0.0000      0.0000      0.0000      0.0000      0.0000
        32         0.0000      0.0000      0.0000      0.0000      0.0000
        33         0.0000      0.0000      0.0000      0.0000      0.0000
        34         0.0000      0.0000      0.0000      0.0000      0.0000
        35         0.0000      0.0000      0.0000      0.0000      0.0000
        36         0.0000      0.0000      0.0000      0.0000      0.0000
        37         0.0000      0.0000      0.0000      0.0000      0.0000
        38         0.0000      0.0000      0.0000      0.0000      0.0000
        39         0.0000      0.0000      0.0000      0.0000      0.0000
        40         0.0000      0.0000      0.0000      0.0000      0.0000
        41         0.0000      0.0000      0.0000      0.0000      0.0000
        42         0.0000      0.0000      0.0000      0.0000      0.0000
        43         0.0000      0.0000      0.0000      0.0000      0.0000
        44         0.0000      0.0000      0.0000      0.0000      0.0000
        45         0.0000      0.0000      0.0000      0.0000      0.0000
        46         0.0000      0.0000      0.0000      0.0000      0.0000
        47         0.0000      0.0000      0.0000      0.0000      0.0000
        48         0.0000      0.0000      0.0000      0.0000      0.0000
        49         0.0000      0.0000      0.0000      0.0000      0.0000
        50         0.0000      0.0000      0.0000      0.0000      0.0000
        51         0.0000      0.0000      0.0000      0.0000      0.0000
        52         0.0000      0.0000     -0.0041      0.0041      0.0027
        53         0.0000     -0.0041      0.0000      0.0041      0.0027
        54        -0.0041      0.0000      0.0000      0.0041      0.0027
        55         0.0000      0.0000      0.0000      0.0000      0.0000

 Excitation energies and oscillator strengths:
 
 Excited State   1:  2.000-T1U   10.2055 eV  121.49 nm  f=0.1386  <S**2>=0.750
      1A -> 30A        0.15985
      1A -> 54A        0.44863
      1A -> 80A        0.72676
      1A ->104A        0.48087
      1A ->129A        0.10471
 This state for optimization and/or second-order correction.
 Total Energy, E(CIS/TDA) = -0.124955448495    
 Copying the excited state density for this state as the 1-particle RhoCI density.
 
 Excited State   2:  2.000-T1U   10.2055 eV  121.49 nm  f=0.1386  <S**2>=0.750
      1A -> 29A        0.15985
      1A -> 56A        0.44863
      1A -> 79A        0.72676
      1A ->103A        0.48087
      1A ->128A        0.10471
 
 Excited State   3:  2.000-T1U   10.2055 eV  121.49 nm  f=0.1386  <S**2>=0.750
      1A -> 31A        0.15991
      1A -> 55A        0.44880
      1A -> 81A        0.72703
      1A ->105A        0.48104
      1A ->130A        0.10475
 
 Excited State   4:  2.000-A1G   10.2055 eV  121.49 nm  f=0.0000  <S**2>=0.750
      1A -> 12A        0.14402
      1A -> 23A        0.31326
      1A -> 53A        0.58161
      1A -> 78A        0.66715
      1A ->106A        0.29969
 
 Excited State   5:  2.000-T2G   12.0951 eV  102.51 nm  f=0.0000  <S**2>=0.750
      1A -> 26A        0.15952
      1A -> 49A        0.12575
      1A -> 50A        0.22912
      1A -> 52A        0.52300
      1A -> 74A        0.15751
      1A -> 76A        0.65520
      1A -> 77A        0.28704
      1A ->100A        0.11535
      1A ->102A        0.26329
 
 Excited State   6:  2.000-T2G   12.0951 eV  102.51 nm  f=0.0000  <S**2>=0.750
      1A -> 28A        0.17568
      1A -> 48A        0.57597
      1A -> 73A        0.72156
      1A -> 74A        0.10547
      1A -> 99A        0.28996
 
 Excited State   7:  2.000-EG    12.0951 eV  102.51 nm  f=0.0000  <S**2>=0.750
      1A -> 24A        0.14977
      1A -> 49A        0.49186
      1A -> 50A        0.22485
      1A -> 52A       -0.21759
      1A -> 74A        0.61617
      1A -> 76A       -0.27260
      1A -> 77A        0.28173
      1A ->100A        0.11321
      1A ->101A        0.24761
      1A ->102A       -0.10954
 
 Excited State   8:  2.000-EG    12.0951 eV  102.51 nm  f=0.0000  <S**2>=0.750
      1A -> 27A        0.14784
      1A -> 49A       -0.27766
      1A -> 50A        0.48574
      1A -> 52A       -0.14446
      1A -> 73A        0.11201
      1A -> 74A       -0.34790
      1A -> 76A       -0.18097
      1A -> 77A        0.60850
      1A ->100A        0.24453
      1A ->101A       -0.13980
 
 Excited State   9:  2.000-T2G   12.0951 eV  102.51 nm  f=0.0000  <S**2>=0.750
      1A -> 25A        0.17835
      1A -> 51A        0.58471
      1A -> 75A        0.73251
      1A -> 98A        0.29436
 
 Excited State  10:  2.000-A1G   12.0951 eV  102.51 nm  f=0.0000  <S**2>=0.750
      1A ->  3A        0.20194
      1A -> 12A        0.42033
      1A -> 23A        0.63903
      1A -> 53A        0.23358
      1A -> 78A       -0.49887
      1A ->106A       -0.25093
 
 Excited State  11:  2.000-T1U   12.0970 eV  102.49 nm  f=0.0260  <S**2>=0.750
      1A -> 13A        0.24354
      1A -> 30A        0.62512
      1A -> 54A        0.58419
[...]
  Beta virt. eigenvalues --    0.80845   0.80845   0.80845   0.80845   0.80845
  Beta virt. eigenvalues --    0.80845   0.80845   0.80845   0.80845   0.81118
  Beta virt. eigenvalues --    1.23758   1.23758   1.23758   1.23758   1.23758
  Beta virt. eigenvalues --    1.23758   1.23758   1.49827   1.49827   1.49827
  Beta virt. eigenvalues --    1.49827   1.49827   1.81892   1.81892   1.81892
  Beta virt. eigenvalues --    2.04444   2.42250   2.42250   2.42250   2.42250
  Beta virt. eigenvalues --    2.42250   2.42250   2.42250   2.42250   2.42250
  Beta virt. eigenvalues --    3.66169   3.66169   3.66169   3.66169   3.66169
  Beta virt. eigenvalues --    3.66169   3.66169   3.80187   3.80187   3.80187
  Beta virt. eigenvalues --    3.80187   3.80187   4.76310   4.76310   4.76310
  Beta virt. eigenvalues --    5.32063   7.49957   7.49957   7.49957   7.49957
  Beta virt. eigenvalues --    7.49957   7.49957   7.49957   7.49957   7.49957
  Beta virt. eigenvalues --    9.16699   9.16699   9.16699   9.16699   9.16699
  Beta virt. eigenvalues --    9.43229   9.43229   9.43229   9.43229   9.43229
  Beta virt. eigenvalues --    9.43229   9.43229  12.49344  12.49344  12.49344
  Beta virt. eigenvalues --   19.21096  20.33022  20.33022  20.33022  20.33022
  Beta virt. eigenvalues --   20.33022  20.33022  20.33022  20.33022  20.33022
  Beta virt. eigenvalues --   22.49873  22.49873  22.49873  22.49873  22.49873
  Beta virt. eigenvalues --   23.66018  23.66018  23.66018  23.66018  23.66018
  Beta virt. eigenvalues --   23.66018  23.66018  33.97353  33.97353  33.97353
          Condensed to atoms (all electrons):
               1
     1  H    1.000000
          Atomic-Atomic Spin Densities.
               1
     1  H    1.000000
 Mulliken charges and spin densities:
               1          2
     1  H    0.000000   1.000000
 Sum of Mulliken charges =   0.00000   1.00000
 Mulliken charges and spin densities with hydrogens summed into heavy atoms:
               1          2
 Electronic spatial extent (au):  <R**2>=              3.0001
 Charge=              0.0000 electrons
 Dipole moment (field-independent basis, Debye):
    X=              0.0000    Y=              0.0000    Z=              0.0000  Tot=              0.0000
 Quadrupole moment (field-independent basis, Debye-Ang):
   XX=             -1.3451   YY=             -1.3451   ZZ=             -1.3451
   XY=              0.0000   XZ=              0.0000   YZ=              0.0000
 Traceless Quadrupole moment (field-independent basis, Debye-Ang):
   XX=              0.0000   YY=              0.0000   ZZ=              0.0000
   XY=              0.0000   XZ=              0.0000   YZ=              0.0000
 Octapole moment (field-independent basis, Debye-Ang**2):
  XXX=              0.0000  YYY=              0.0000  ZZZ=              0.0000  XYY=              0.0000
  XXY=              0.0000  XXZ=              0.0000  XZZ=              0.0000  YZZ=              0.0000
  YYZ=              0.0000  XYZ=              0.0000
 Hexadecapole moment (field-independent basis, Debye-Ang**3):
 XXXX=             -1.6990 YYYY=             -1.6990 ZZZZ=             -1.6990 XXXY=              0.0000
 XXXZ=              0.0000 YYYX=              0.0000 YYYZ=              0.0000 ZZZX=              0.0000
 ZZZY=              0.0000 XXYY=             -0.5663 XXZZ=             -0.5663 YYZZ=             -0.5663
 XXYZ=              0.0000 YYXZ=              0.0000 ZZXY=              0.0000
 N-N= 0.000000000000D+00 E-N=-9.999968034502D-01  KE= 4.999975204247D-01
 Symmetry AG   KE= 4.999975204246D-01
 Symmetry B1G  KE= 7.324213763061D-61
 Symmetry B2G  KE= 7.527741437516D-61
 Symmetry B3G  KE= 6.397425826236D-61
 Symmetry AU   KE= 0.000000000000D+00
 Symmetry B1U  KE= 0.000000000000D+00
 Symmetry B2U  KE= 0.000000000000D+00
 Symmetry B3U  KE= 0.000000000000D+00
 Symmetry AG   SP= 1.000000000000D+00
 Symmetry B1G  SP= 4.827649405386D-61
 Symmetry B2G  SP= 5.039172865704D-61
 Symmetry B3G  SP= 4.680447972839D-61
 Symmetry AU   SP= 0.000000000000D+00
 Symmetry B1U  SP= 0.000000000000D+00
 Symmetry B2U  SP= 0.000000000000D+00
 Symmetry B3U  SP= 0.000000000000D+00
 Leave Link  601 at Mon Jun 10 13:17:19 2024, MaxMem=   536870912 cpu:               2.0 elap:               1.7
 (Enter C:\G16W\l9999.exe)
 Electronic transition elements 
                 1             2             3             4             5 
      1  -0.124955D+00 -0.124955D+00 -0.124955D+00 -0.124955D+00 -0.555118D-01
      2  -0.744339D+00  0.201690D-01  0.000000D+00  0.000000D+00  0.000000D+00
      3  -0.201690D-01 -0.744339D+00  0.000000D+00  0.000000D+00  0.000000D+00
      4   0.000000D+00  0.000000D+00  0.744612D+00  0.000000D+00  0.000000D+00
      5   0.279186D+00 -0.756495D-02  0.000000D+00  0.000000D+00  0.000000D+00
      6   0.756495D-02  0.279186D+00  0.000000D+00  0.000000D+00  0.000000D+00
      7   0.000000D+00  0.000000D+00 -0.279288D+00  0.000000D+00  0.000000D+00
      8   0.000000D+00  0.000000D+00  0.000000D+00  0.000000D+00  0.000000D+00
      9   0.000000D+00  0.000000D+00  0.000000D+00  0.000000D+00  0.000000D+00
     10   0.000000D+00  0.000000D+00  0.000000D+00  0.000000D+00  0.000000D+00
     11   0.000000D+00  0.000000D+00  0.000000D+00  0.371890D+00 -0.111638D-01
     12   0.000000D+00  0.000000D+00  0.000000D+00  0.371890D+00 -0.829206D-01
     13   0.000000D+00  0.000000D+00  0.000000D+00  0.371890D+00  0.940843D-01
     14   0.000000D+00  0.000000D+00  0.000000D+00  0.000000D+00 -0.319208D-02
     15   0.000000D+00  0.000000D+00  0.000000D+00  0.000000D+00 -0.178156D+00
     16   0.000000D+00  0.000000D+00  0.000000D+00  0.000000D+00 -0.900823D-03
                 6             7             8             9            10 
      1  -0.555118D-01 -0.555118D-01 -0.555118D-01 -0.555118D-01 -0.555117D-01
      2   0.000000D+00  0.000000D+00  0.000000D+00  0.000000D+00  0.000000D+00
      3   0.000000D+00  0.000000D+00  0.000000D+00  0.000000D+00  0.000000D+00
      4   0.000000D+00  0.000000D+00  0.000000D+00  0.000000D+00  0.000000D+00
      5   0.000000D+00  0.000000D+00  0.000000D+00  0.000000D+00  0.000000D+00
      6   0.000000D+00  0.000000D+00  0.000000D+00  0.000000D+00  0.000000D+00
      7   0.000000D+00  0.000000D+00  0.000000D+00  0.000000D+00  0.000000D+00
      8   0.000000D+00  0.000000D+00  0.000000D+00  0.000000D+00  0.000000D+00
      9   0.000000D+00  0.000000D+00  0.000000D+00  0.000000D+00  0.000000D+00
     10   0.000000D+00  0.000000D+00  0.000000D+00  0.000000D+00  0.000000D+00
     11   0.392785D-01  0.107772D+00 -0.199045D+00  0.109598D-02 -0.161527D+00
     12  -0.210553D-01 -0.212721D+00  0.182151D-01  0.103206D-02 -0.161527D+00
     13  -0.182232D-01  0.104949D+00  0.180830D+00 -0.212804D-02 -0.161527D+00
     14   0.196201D+00 -0.155739D-01  0.304568D-01 -0.127414D-02  0.000000D+00
     15  -0.465234D-02  0.741218D-01  0.492080D-01  0.193514D-03  0.000000D+00
     16  -0.110875D-02 -0.643619D-03 -0.161347D-02 -0.199177D+00  0.000000D+00
                11            12            13            14            15 
      1  -0.554428D-01 -0.554428D-01 -0.554428D-01 -0.312176D-01 -0.311354D-01
      2   0.296033D+00  0.118815D-01  0.000000D+00  0.000000D+00  0.000000D+00
      3  -0.118815D-01  0.296033D+00  0.000000D+00  0.000000D+00  0.000000D+00
      4   0.000000D+00  0.000000D+00 -0.296271D+00  0.000000D+00  0.000000D+00
      5  -0.131709D+00 -0.528622D-02  0.000000D+00  0.000000D+00  0.000000D+00
      6   0.528622D-02 -0.131709D+00  0.000000D+00  0.000000D+00  0.000000D+00
      7   0.000000D+00  0.000000D+00  0.131815D+00  0.000000D+00  0.000000D+00
      8   0.000000D+00  0.000000D+00  0.000000D+00  0.000000D+00  0.000000D+00
      9   0.000000D+00  0.000000D+00  0.000000D+00  0.000000D+00  0.000000D+00
     10   0.000000D+00  0.000000D+00  0.000000D+00  0.000000D+00  0.000000D+00
     11   0.000000D+00  0.000000D+00  0.000000D+00 -0.964612D-01  0.734023D-01
     12   0.000000D+00  0.000000D+00  0.000000D+00 -0.964612D-01 -0.432872D-01
     13   0.000000D+00  0.000000D+00  0.000000D+00 -0.964612D-01 -0.301152D-01
     14   0.000000D+00  0.000000D+00  0.000000D+00  0.000000D+00  0.811288D-01
     15   0.000000D+00  0.000000D+00  0.000000D+00  0.000000D+00  0.244003D-03
     16   0.000000D+00  0.000000D+00  0.000000D+00  0.000000D+00  0.925180D-01
                16            17            18            19            20 
      1  -0.311354D-01 -0.311354D-01 -0.311354D-01 -0.311354D-01 -0.311293D-01
      2   0.000000D+00  0.000000D+00  0.000000D+00  0.000000D+00  0.000000D+00
      3   0.000000D+00  0.000000D+00  0.000000D+00  0.000000D+00  0.000000D+00
      4   0.000000D+00  0.000000D+00  0.000000D+00  0.000000D+00  0.000000D+00
      5   0.000000D+00  0.000000D+00  0.000000D+00  0.000000D+00  0.000000D+00
      6   0.000000D+00  0.000000D+00  0.000000D+00  0.000000D+00  0.000000D+00
      7   0.000000D+00  0.000000D+00  0.000000D+00  0.000000D+00  0.000000D+00
      8   0.000000D+00  0.000000D+00  0.000000D+00  0.000000D+00  0.000000D+00
      9   0.000000D+00  0.000000D+00  0.000000D+00  0.000000D+00  0.000000D+00
     10   0.000000D+00  0.000000D+00  0.000000D+00  0.000000D+00  0.000000D+00
     11  -0.735849D-01  0.252567D-01  0.118462D+00 -0.126709D-01  0.000000D+00
     12   0.943460D-01 -0.109969D+00  0.626148D-02  0.522216D-01  0.000000D+00
     13  -0.207611D-01  0.847124D-01 -0.124724D+00 -0.395507D-01  0.000000D+00
     14  -0.515070D-01 -0.751214D-01 -0.651858D-01  0.992802D-02  0.000000D+00
     15  -0.230202D-01  0.413516D-01 -0.936272D-02  0.129993D+00  0.000000D+00
     16   0.931100D-01  0.438066D-01 -0.864151D-02  0.175742D-02  0.000000D+00
                21            22            23            24            25 
      1  -0.311293D-01 -0.311293D-01 -0.311293D-01 -0.311293D-01 -0.311293D-01
      2   0.000000D+00  0.000000D+00  0.000000D+00  0.000000D+00  0.000000D+00
      3   0.000000D+00  0.000000D+00  0.000000D+00  0.000000D+00  0.000000D+00
      4   0.000000D+00  0.000000D+00  0.000000D+00  0.000000D+00  0.000000D+00
      5   0.000000D+00  0.000000D+00  0.000000D+00  0.000000D+00  0.000000D+00
      6   0.000000D+00  0.000000D+00  0.000000D+00  0.000000D+00  0.000000D+00
      7   0.000000D+00  0.000000D+00  0.000000D+00  0.000000D+00  0.000000D+00
      8   0.000000D+00  0.000000D+00  0.000000D+00  0.000000D+00  0.000000D+00
      9   0.000000D+00  0.000000D+00  0.000000D+00  0.000000D+00  0.000000D+00
     10   0.000000D+00  0.000000D+00  0.000000D+00  0.000000D+00  0.000000D+00
     11   0.000000D+00  0.000000D+00  0.000000D+00  0.000000D+00  0.000000D+00
     12   0.000000D+00  0.000000D+00  0.000000D+00  0.000000D+00  0.000000D+00
     13   0.000000D+00  0.000000D+00  0.000000D+00  0.000000D+00  0.000000D+00
     14   0.000000D+00  0.000000D+00  0.000000D+00  0.000000D+00  0.000000D+00
     15   0.000000D+00  0.000000D+00  0.000000D+00  0.000000D+00  0.000000D+00
     16   0.000000D+00  0.000000D+00  0.000000D+00  0.000000D+00  0.000000D+00
                26            27            28            29            30 
      1  -0.311293D-01 -0.310215D-01 -0.310215D-01 -0.310215D-01 -0.199398D-01
      2   0.000000D+00 -0.166755D+00  0.252595D-02  0.000000D+00  0.000000D+00
      3   0.000000D+00 -0.252595D-02 -0.166755D+00  0.000000D+00  0.000000D+00
      4   0.000000D+00  0.000000D+00  0.000000D+00  0.166774D+00  0.000000D+00
      5   0.000000D+00  0.783877D-01 -0.118739D-02  0.000000D+00  0.000000D+00
      6   0.000000D+00  0.118739D-02  0.783877D-01  0.000000D+00  0.000000D+00
      7   0.000000D+00  0.000000D+00  0.000000D+00 -0.783967D-01  0.000000D+00
      8   0.000000D+00  0.000000D+00  0.000000D+00  0.000000D+00  0.000000D+00
      9   0.000000D+00  0.000000D+00  0.000000D+00  0.000000D+00  0.000000D+00
     10   0.000000D+00  0.000000D+00  0.000000D+00  0.000000D+00  0.000000D+00
     11   0.000000D+00  0.000000D+00  0.000000D+00  0.000000D+00  0.360087D-02
     12   0.000000D+00  0.000000D+00  0.000000D+00  0.000000D+00 -0.369477D-02
     13   0.000000D+00  0.000000D+00  0.000000D+00  0.000000D+00  0.939036D-04
     14   0.000000D+00  0.000000D+00  0.000000D+00  0.000000D+00  0.316567D-02
     15   0.000000D+00  0.000000D+00  0.000000D+00  0.000000D+00 -0.209755D-03
     16   0.000000D+00  0.000000D+00  0.000000D+00  0.000000D+00  0.983169D-01
                31            32            33            34            35 
      1  -0.199398D-01 -0.199398D-01 -0.199398D-01 -0.199398D-01 -0.198726D-01
      2   0.000000D+00  0.000000D+00  0.000000D+00  0.000000D+00  0.000000D+00
      3   0.000000D+00  0.000000D+00  0.000000D+00  0.000000D+00  0.000000D+00
      4   0.000000D+00  0.000000D+00  0.000000D+00  0.000000D+00  0.000000D+00
      5   0.000000D+00  0.000000D+00  0.000000D+00  0.000000D+00  0.000000D+00
      6   0.000000D+00  0.000000D+00  0.000000D+00  0.000000D+00  0.000000D+00
      7   0.000000D+00  0.000000D+00  0.000000D+00  0.000000D+00  0.000000D+00
      8   0.000000D+00  0.000000D+00  0.000000D+00  0.000000D+00  0.000000D+00
      9   0.000000D+00  0.000000D+00  0.000000D+00  0.000000D+00  0.000000D+00
     10   0.000000D+00  0.000000D+00  0.000000D+00  0.000000D+00  0.000000D+00
     11   0.836768D-02  0.272390D-01 -0.104062D+00  0.355764D-01  0.000000D+00
     12   0.249868D-01  0.460324D-01  0.909044D-01  0.435761D-01  0.000000D+00
     13  -0.333545D-01 -0.732714D-01  0.131573D-01 -0.791524D-01  0.000000D+00
     14  -0.826768D-01  0.517475D-01  0.269530D-02 -0.126112D-01  0.000000D+00
     15  -0.440713D-01 -0.538058D-01  0.608812D-02  0.693912D-01  0.000000D+00
     16   0.290026D-02 -0.137986D-02  0.353366D-02  0.759212D-03  0.000000D+00
                36            37            38            39            40 
      1  -0.198726D-01 -0.198726D-01 -0.198726D-01 -0.198726D-01 -0.198726D-01
      2   0.000000D+00  0.000000D+00  0.000000D+00  0.000000D+00  0.000000D+00
      3   0.000000D+00  0.000000D+00  0.000000D+00  0.000000D+00  0.000000D+00
      4   0.000000D+00  0.000000D+00  0.000000D+00  0.000000D+00  0.000000D+00
      5   0.000000D+00  0.000000D+00  0.000000D+00  0.000000D+00  0.000000D+00
      6   0.000000D+00  0.000000D+00  0.000000D+00  0.000000D+00  0.000000D+00
      7   0.000000D+00  0.000000D+00  0.000000D+00  0.000000D+00  0.000000D+00
      8   0.000000D+00  0.000000D+00  0.000000D+00  0.000000D+00  0.000000D+00
      9   0.000000D+00  0.000000D+00  0.000000D+00  0.000000D+00  0.000000D+00
     10   0.000000D+00  0.000000D+00  0.000000D+00  0.000000D+00  0.000000D+00
     11   0.000000D+00  0.000000D+00  0.000000D+00  0.000000D+00  0.000000D+00
     12   0.000000D+00  0.000000D+00  0.000000D+00  0.000000D+00  0.000000D+00
     13   0.000000D+00  0.000000D+00  0.000000D+00  0.000000D+00  0.000000D+00
     14   0.000000D+00  0.000000D+00  0.000000D+00  0.000000D+00  0.000000D+00
     15   0.000000D+00  0.000000D+00  0.000000D+00  0.000000D+00  0.000000D+00
     16   0.000000D+00  0.000000D+00  0.000000D+00  0.000000D+00  0.000000D+00
                41            42            43            44            45 
      1  -0.198726D-01 -0.198726D-01 -0.198726D-01 -0.197394D-01 -0.196222D-01
      2   0.000000D+00  0.000000D+00  0.000000D+00  0.000000D+00  0.000000D+00
      3   0.000000D+00  0.000000D+00  0.000000D+00  0.000000D+00  0.000000D+00
      4   0.000000D+00  0.000000D+00  0.000000D+00  0.000000D+00  0.000000D+00
      5   0.000000D+00  0.000000D+00  0.000000D+00  0.000000D+00  0.000000D+00
      6   0.000000D+00  0.000000D+00  0.000000D+00  0.000000D+00  0.000000D+00
      7   0.000000D+00  0.000000D+00  0.000000D+00  0.000000D+00  0.000000D+00
      8   0.000000D+00  0.000000D+00  0.000000D+00  0.000000D+00  0.000000D+00
      9   0.000000D+00  0.000000D+00  0.000000D+00  0.000000D+00  0.000000D+00
     10   0.000000D+00  0.000000D+00  0.000000D+00  0.000000D+00  0.000000D+00
     11   0.000000D+00  0.000000D+00  0.000000D+00  0.559309D-01  0.000000D+00
     12   0.000000D+00  0.000000D+00  0.000000D+00  0.559309D-01  0.000000D+00
     13   0.000000D+00  0.000000D+00  0.000000D+00  0.559309D-01  0.000000D+00
     14   0.000000D+00  0.000000D+00  0.000000D+00  0.000000D+00  0.000000D+00
     15   0.000000D+00  0.000000D+00  0.000000D+00  0.000000D+00  0.000000D+00
     16   0.000000D+00  0.000000D+00  0.000000D+00  0.000000D+00  0.000000D+00
                46            47            48            49            50 
      1  -0.196222D-01 -0.196222D-01 -0.196222D-01 -0.196222D-01 -0.196222D-01
      2   0.000000D+00  0.000000D+00  0.000000D+00  0.000000D+00  0.000000D+00
      3   0.000000D+00  0.000000D+00  0.000000D+00  0.000000D+00  0.000000D+00
      4   0.000000D+00  0.000000D+00  0.000000D+00  0.000000D+00  0.000000D+00
      5   0.000000D+00  0.000000D+00  0.000000D+00  0.000000D+00  0.000000D+00
      6   0.000000D+00  0.000000D+00  0.000000D+00  0.000000D+00  0.000000D+00
      7   0.000000D+00  0.000000D+00  0.000000D+00  0.000000D+00  0.000000D+00
      8   0.000000D+00  0.000000D+00  0.000000D+00  0.000000D+00  0.000000D+00
      9   0.000000D+00  0.000000D+00  0.000000D+00  0.000000D+00  0.000000D+00
     10   0.000000D+00  0.000000D+00  0.000000D+00  0.000000D+00  0.000000D+00
     11   0.000000D+00  0.000000D+00  0.000000D+00  0.000000D+00  0.000000D+00
     12   0.000000D+00  0.000000D+00  0.000000D+00  0.000000D+00  0.000000D+00
     13   0.000000D+00  0.000000D+00  0.000000D+00  0.000000D+00  0.000000D+00
     14   0.000000D+00  0.000000D+00  0.000000D+00  0.000000D+00  0.000000D+00
     15   0.000000D+00  0.000000D+00  0.000000D+00  0.000000D+00  0.000000D+00
     16   0.000000D+00  0.000000D+00  0.000000D+00  0.000000D+00  0.000000D+00
                51            52            53            54            55 
      1  -0.196222D-01 -0.192794D-01 -0.192794D-01 -0.192794D-01 -0.137074D-01
      2   0.000000D+00 -0.919574D-01  0.279593D-02  0.000000D+00  0.000000D+00
      3   0.000000D+00 -0.279593D-02 -0.919574D-01  0.000000D+00  0.000000D+00
      4   0.000000D+00  0.000000D+00  0.000000D+00  0.919999D-01  0.000000D+00
      5   0.000000D+00  0.444491D-01 -0.135146D-02  0.000000D+00  0.000000D+00
      6   0.000000D+00  0.135146D-02  0.444491D-01  0.000000D+00  0.000000D+00
      7   0.000000D+00  0.000000D+00  0.000000D+00 -0.444697D-01  0.000000D+00
      8   0.000000D+00  0.000000D+00  0.000000D+00  0.000000D+00  0.000000D+00
      9   0.000000D+00  0.000000D+00  0.000000D+00  0.000000D+00  0.000000D+00
     10   0.000000D+00  0.000000D+00  0.000000D+00  0.000000D+00  0.000000D+00
     11   0.000000D+00  0.000000D+00  0.000000D+00  0.000000D+00  0.000000D+00
     12   0.000000D+00  0.000000D+00  0.000000D+00  0.000000D+00  0.000000D+00
     13   0.000000D+00  0.000000D+00  0.000000D+00  0.000000D+00  0.000000D+00
     14   0.000000D+00  0.000000D+00  0.000000D+00  0.000000D+00  0.000000D+00
     15   0.000000D+00  0.000000D+00  0.000000D+00  0.000000D+00  0.000000D+00
     16   0.000000D+00  0.000000D+00  0.000000D+00  0.000000D+00  0.000000D+00
 1|1|UNPC-INOHAAN|SP|UCIS-FC|Gen|H1(2)|SATO4|10-Jun-2024|0||#p CIS(NSta
 tes=55,root=1)/gen int=(ultrafine)||Title Card Required||0,2|H,0,0.,0.
 ,0.||Version=EM64W-G16RevB.01|State=2-A1G|HF=-0.4999993|S2=0.75|S2-1=0
 .|S2A=0.75|RMSD=7.091e-010|PG=OH [O(H1)]||@


 I HAVE NOT FAILED, I HAVE ONLY DISCOVERED 10,000
 WAYS THAT DIDN'T WORK.  -- THOMAS A. EDISON
 Job cpu time:       0 days  0 hours  1 minutes 11.0 seconds.
 Elapsed time:       0 days  0 hours  0 minutes 59.2 seconds.
 File lengths (MBytes):  RWF=    175 Int=      0 D2E=      0 Chk=    144 Scr=      1
 Normal termination of Gaussian 16 at Mon Jun 10 13:17:21 2024.
