 Entering Link 1 = C:\G16W\l1.exe PID=     37316.
  
 Copyright (c) 1988-2017, Gaussian, Inc.  All Rights Reserved.
  
 This is part of the Gaussian(R) 16 program.  It is based on
 the Gaussian(R) 09 system (copyright 2009, Gaussian, Inc.),
 the Gaussian(R) 03 system (copyright 2003, Gaussian, Inc.),
 the Gaussian(R) 98 system (copyright 1998, Gaussian, Inc.),
 the Gaussian(R) 94 system (copyright 1995, Gaussian, Inc.),
 the Gaussian 92(TM) system (copyright 1992, Gaussian, Inc.),
 the Gaussian 90(TM) system (copyright 1990, Gaussian, Inc.),
 the Gaussian 88(TM) system (copyright 1988, Gaussian, Inc.),
 the Gaussian 86(TM) system (copyright 1986, Carnegie Mellon
 University), and the Gaussian 82(TM) system (copyright 1983,
 Carnegie Mellon University). Gaussian is a federally registered
 trademark of Gaussian, Inc.
  
 This software contains proprietary and confidential information,
 including trade secrets, belonging to Gaussian, Inc.
  
 This software is provided under written license and may be
 used, copied, transmitted, or stored only in accord with that
 written license.
  
 The following legend is applicable only to US Government
 contracts under FAR:
  
                    RESTRICTED RIGHTS LEGEND
  
 Use, reproduction and disclosure by the US Government is
 subject to restrictions as set forth in subparagraphs (a)
 and (c) of the Commercial Computer Software - Restricted
 Rights clause in FAR 52.227-19.
  
 Gaussian, Inc.
 340 Quinnipiac St., Bldg. 40, Wallingford CT 06492
  
  
 ---------------------------------------------------------------
 Warning -- This program may not be used in any manner that
 competes with the business of Gaussian, Inc. or will provide
 assistance to any competitor of Gaussian, Inc.  The licensee
 of this program is prohibited from giving any competitor of
 Gaussian, Inc. access to this program.  By using this program,
 the user acknowledges that Gaussian, Inc. is engaged in the
 business of creating and licensing software in the field of
 computational chemistry and represents and warrants to the
 licensee that it is not a competitor of Gaussian, Inc. and that
 it will not use this program in any manner prohibited above.
 ---------------------------------------------------------------
  

 Cite this work as:
 Gaussian 16, Revision B.01,
 M. J. Frisch, G. W. Trucks, H. B. Schlegel, G. E. Scuseria, 
 M. A. Robb, J. R. Cheeseman, G. Scalmani, V. Barone, 
 G. A. Petersson, H. Nakatsuji, X. Li, M. Caricato, A. V. Marenich, 
 J. Bloino, B. G. Janesko, R. Gomperts, B. Mennucci, H. P. Hratchian, 
 J. V. Ortiz, A. F. Izmaylov, J. L. Sonnenberg, D. Williams-Young, 
 F. Ding, F. Lipparini, F. Egidi, J. Goings, B. Peng, A. Petrone, 
 T. Henderson, D. Ranasinghe, V. G. Zakrzewski, J. Gao, N. Rega, 
 G. Zheng, W. Liang, M. Hada, M. Ehara, K. Toyota, R. Fukuda, 
 J. Hasegawa, M. Ishida, T. Nakajima, Y. Honda, O. Kitao, H. Nakai, 
 T. Vreven, K. Throssell, J. A. Montgomery, Jr., J. E. Peralta, 
 F. Ogliaro, M. J. Bearpark, J. J. Heyd, E. N. Brothers, K. N. Kudin, 
 V. N. Staroverov, T. A. Keith, R. Kobayashi, J. Normand, 
 K. Raghavachari, A. P. Rendell, J. C. Burant, S. S. Iyengar, 
 J. Tomasi, M. Cossi, J. M. Millam, M. Klene, C. Adamo, R. Cammi, 
 J. W. Ochterski, R. L. Martin, K. Morokuma, O. Farkas, 
 J. B. Foresman, and D. J. Fox, Gaussian, Inc., Wallingford CT, 2016.
 
 ******************************************
 Gaussian 16:  EM64W-G16RevB.01 16-Dec-2017
                10-Jun-2024 
 ******************************************
 %nprocshared=4
 Will use up to    4 processors via shared memory.
 %mem=4gb
 %chk=C:\Users\sato4\Documents\UTokyo\EEIC-Exp\E1\input\H2_triplet.chk
 ----------------------------------------------------------------------
 #p EOMCCSD(NStates=12,root=1,triplets)/taug-cc-pvtz int=(ultrafine) IO
 p(9/6=5000000) IOp(9/19=1)
 ----------------------------------------------------------------------
 1/38=1,172=1/1;
 2/12=2,17=6,18=5,40=1/2;
 3/5=16,6=1,7=3010,11=9,25=1,30=1,75=-5/1,2,3,8;
 4//1;
 5/5=2,38=5/2;
 8/6=1,10=1,68=101,107=1,108=12/1;
 9/6=5000000,8=1,19=1,41=12,42=1,48=3,68=1/14;
 8/6=4,9=120000,10=92,68=1,107=1,108=12/1,4;
 9/5=7,6=5000000,19=1,41=12,68=1/13;
 6/7=2,8=2,9=2,10=2/1;
 99/5=1,9=1/99;
 Leave Link    1 at Mon Jun 10 14:08:46 2024, MaxMem=   536870912 cpu:               0.0 elap:               0.1
 (Enter C:\G16W\l101.exe)
 -------------------
 Title Card Required
 -------------------
 Symbolic Z-matrix:
 Charge =  0 Multiplicity = 1
 H                     0.        0.        0.5025 
 H                     0.        0.       -0.5025 
 
 ITRead=  0  0
 MicOpt= -1 -1
 NAtoms=      2 NQM=        2 NQMF=       0 NMMI=      0 NMMIF=      0
                NMic=       0 NMicF=      0.
                    Isotopes and Nuclear Properties:
 (Nuclear quadrupole moments (NQMom) in fm**2, nuclear magnetic moments (NMagM)
  in nuclear magnetons)

  Atom         1           2
 IAtWgt=           1           1
 AtmWgt=   1.0078250   1.0078250
 NucSpn=           1           1
 AtZEff=   0.0000000   0.0000000
 NQMom=    0.0000000   0.0000000
 NMagM=    2.7928460   2.7928460
 AtZNuc=   1.0000000   1.0000000
 Leave Link  101 at Mon Jun 10 14:08:46 2024, MaxMem=   536870912 cpu:               0.0 elap:               0.3
 (Enter C:\G16W\l202.exe)
                          Input orientation:                          
 ---------------------------------------------------------------------
 Center     Atomic      Atomic             Coordinates (Angstroms)
 Number     Number       Type             X           Y           Z
 ---------------------------------------------------------------------
      1          1           0        0.000000    0.000000    0.502500
      2          1           0        0.000000    0.000000   -0.502500
 ---------------------------------------------------------------------
 Stoichiometry    H2
 Framework group  D*H[C*(H.H)]
 Deg. of freedom     1
 Full point group                 D*H     NOp   8
 Largest Abelian subgroup         D2H     NOp   8
 Largest concise Abelian subgroup C2      NOp   2
                         Standard orientation:                         
 ---------------------------------------------------------------------
 Center     Atomic      Atomic             Coordinates (Angstroms)
 Number     Number       Type             X           Y           Z
 ---------------------------------------------------------------------
      1          1           0        0.000000    0.000000    0.502500
      2          1           0        0.000000    0.000000   -0.502500
 ---------------------------------------------------------------------
 Rotational constants (GHZ):           0.0000000         992.9558268         992.9558268
 Leave Link  202 at Mon Jun 10 14:08:47 2024, MaxMem=   536870912 cpu:               0.0 elap:               0.1
 (Enter C:\G16W\l301.exe)
 Standard basis: TAug-CC-pVTZ (5D, 7F)
 Ernie: Thresh=  0.10000D-02 Tol=  0.10000D-05 Strict=F.
 There are    23 symmetry adapted cartesian basis functions of AG  symmetry.
 There are     4 symmetry adapted cartesian basis functions of B1G symmetry.
 There are     9 symmetry adapted cartesian basis functions of B2G symmetry.
 There are     9 symmetry adapted cartesian basis functions of B3G symmetry.
 There are     4 symmetry adapted cartesian basis functions of AU  symmetry.
 There are    23 symmetry adapted cartesian basis functions of B1U symmetry.
 There are     9 symmetry adapted cartesian basis functions of B2U symmetry.
 There are     9 symmetry adapted cartesian basis functions of B3U symmetry.
 There are    19 symmetry adapted basis functions of AG  symmetry.
 There are     4 symmetry adapted basis functions of B1G symmetry.
 There are     9 symmetry adapted basis functions of B2G symmetry.
 There are     9 symmetry adapted basis functions of B3G symmetry.
 There are     4 symmetry adapted basis functions of AU  symmetry.
 There are    19 symmetry adapted basis functions of B1U symmetry.
 There are     9 symmetry adapted basis functions of B2U symmetry.
 There are     9 symmetry adapted basis functions of B3U symmetry.
    82 basis functions,    94 primitive gaussians,    90 cartesian basis functions
     1 alpha electrons        1 beta electrons
       nuclear repulsion energy         0.5265444885 Hartrees.
 IExCor=    0 DFT=F Ex=HF Corr=None ExCW=0 ScaHFX=  1.000000
 ScaDFX=  1.000000  1.000000  1.000000  1.000000 ScalE2=  1.000000  1.000000
 IRadAn=      5 IRanWt=     -1 IRanGd=            0 ICorTp=0 IEmpDi=  4
 NAtoms=    2 NActive=    2 NUniq=    1 SFac= 4.00D+00 NAtFMM=   60 NAOKFM=F Big=F
 Integral buffers will be    131072 words long.
 Raffenetti 1 integral format.
 Two-electron integral symmetry is turned on.
 Leave Link  301 at Mon Jun 10 14:08:47 2024, MaxMem=   536870912 cpu:               0.0 elap:               0.1
 (Enter C:\G16W\l302.exe)
 NPDir=0 NMtPBC=     1 NCelOv=     1 NCel=       1 NClECP=     1 NCelD=      1
         NCelK=      1 NCelE2=     1 NClLst=     1 CellRange=     0.0.
 One-electron integrals computed using PRISM.
 One-electron integral symmetry used in STVInt
 NBasis=    82 RedAO= T EigKep=  1.06D-05  NBF=    19     4     9     9     4    19     9     9
 NBsUse=    82 1.00D-06 EigRej= -1.00D+00 NBFU=    19     4     9     9     4    19     9     9
 Leave Link  302 at Mon Jun 10 14:08:47 2024, MaxMem=   536870912 cpu:               0.0 elap:               0.4
 (Enter C:\G16W\l303.exe)
 DipDrv:  MaxL=1.
 Leave Link  303 at Mon Jun 10 14:08:48 2024, MaxMem=   536870912 cpu:               0.0 elap:               0.2
 (Enter C:\G16W\l308.exe)
 Leave Link  308 at Mon Jun 10 14:08:48 2024, MaxMem=   536870912 cpu:               0.0 elap:               0.2
 (Enter C:\G16W\l401.exe)
 ExpMin= 2.81D-03 ExpMax= 3.39D+01 ExpMxC= 3.39D+01 IAcc=3 IRadAn=         5 AccDes= 0.00D+00
 Harris functional with IExCor=  205 and IRadAn=       5 diagonalized for initial guess.
 HarFok:  IExCor=  205 AccDes= 0.00D+00 IRadAn=         5 IDoV= 1 UseB2=F ITyADJ=14
 ICtDFT=  3500011 ScaDFX=  1.000000  1.000000  1.000000  1.000000
 FoFCou: FMM=F IPFlag=           0 FMFlag=      100000 FMFlg1=           0
         NFxFlg=           0 DoJE=T BraDBF=F KetDBF=T FulRan=T
         wScrn=  0.000000 ICntrl=       500 IOpCl=  0 I1Cent=   200000004 NGrid=           0
         NMat0=    1 NMatS0=      1 NMatT0=    0 NMatD0=    1 NMtDS0=    0 NMtDT0=    0
 Petite list used in FoFCou.
 Harris En= -1.15572845090516    
 JPrj=0 DoOrth=F DoCkMO=F.
 Initial guess orbital symmetries:
       Occupied  (SGG)
       Virtual   (SGU) (SGG) (PIU) (PIU) (SGU) (SGG) (SGU) (PIG)
                 (PIG) (SGG) (PIU) (PIU) (SGU) (SGG) (DLTG) (DLTG)
                 (PIG) (PIG) (SGG) (SGU) (PIU) (PIU) (DLTU) (DLTU)
                 (SGU) (SGG) (PIG) (PIG) (PIU) (PIU) (SGU) (SGG)
                 (DLTG) (DLTG) (SGU) (PIG) (PIG) (PIU) (PIU) (DLTU)
                 (DLTU) (SGG) (SGU) (PIG) (PIG) (SGG) (PIU) (PIU)
                 (DLTG) (DLTG) (SGG) (SGU) (PIG) (PIG) (SGU) (DLTU)
                 (DLTU) (PIU) (PIU) (SGG) (PIG) (PIG) (SGU) (SGG)
                 (SGU) (PIU) (PIU) (DLTG) (DLTG) (SGG) (DLTU) (DLTU)
                 (PIU) (PIU) (PIG) (PIG) (SGU) (PIG) (PIG) (SGG)
                 (SGU)
 The electronic state of the initial guess is 1-SGG.
 Leave Link  401 at Mon Jun 10 14:08:50 2024, MaxMem=   536870912 cpu:               1.0 elap:               0.5
 (Enter C:\G16W\l502.exe)
 Keep R1 ints in memory in symmetry-blocked form, NReq=6641537.
 FoFCou: FMM=F IPFlag=           0 FMFlag=           0 FMFlg1=           0
         NFxFlg=           0 DoJE=F BraDBF=F KetDBF=F FulRan=T
         wScrn=  0.000000 ICntrl=       600 IOpCl=  0 I1Cent=           0 NGrid=           0
         NMat0=    1 NMatS0=   3403 NMatT0=    0 NMatD0=    1 NMtDS0=    0 NMtDT0=    0
 Petite list used in FoFCou.
 Closed shell SCF:
 Using DIIS extrapolation, IDIIS=  1040.
 NGot=   536870912 LenX=   536083996 LenY=   536075455
 Requested convergence on RMS density matrix=1.00D-08 within 128 cycles.
 Requested convergence on MAX density matrix=1.00D-06.
 Requested convergence on             energy=1.00D-06.
 No special actions if energy rises.

 Cycle   1  Pass 1  IDiag  1:
 E= -1.09988803839532    
 DIIS: error= 7.38D-03 at cycle   1 NSaved=   1.
 NSaved= 1 IEnMin= 1 EnMin= -1.09988803839532     IErMin= 1 ErrMin= 7.38D-03
 ErrMax= 7.38D-03  0.00D+00 EMaxC= 1.00D-01 BMatC= 1.23D-03 BMatP= 1.23D-03
 IDIUse=3 WtCom= 9.26D-01 WtEn= 7.38D-02
 Coeff-Com:  0.100D+01
 Coeff-En:   0.100D+01
 Coeff:      0.100D+01
 Gap=     0.547 Goal=   None    Shift=    0.000
 GapD=    0.547 DampG=2.000 DampE=1.000 DampFc=2.0000 IDamp=-1.
 RMSDP=2.56D-04 MaxDP=4.23D-03              OVMax= 2.03D-02

 Cycle   2  Pass 1  IDiag  1:
 E= -1.10124139825181     Delta-E=       -0.001353359856 Rises=F Damp=F
 DIIS: error= 1.03D-03 at cycle   2 NSaved=   2.
 NSaved= 2 IEnMin= 2 EnMin= -1.10124139825181     IErMin= 2 ErrMin= 1.03D-03
 ErrMax= 1.03D-03  0.00D+00 EMaxC= 1.00D-01 BMatC= 2.43D-05 BMatP= 1.23D-03
 IDIUse=3 WtCom= 9.90D-01 WtEn= 1.03D-02
 Coeff-Com: -0.145D+00 0.114D+01
 Coeff-En:   0.000D+00 0.100D+01
 Coeff:     -0.143D+00 0.114D+01
 Gap=     0.529 Goal=   None    Shift=    0.000
 RMSDP=8.25D-05 MaxDP=1.66D-03 DE=-1.35D-03 OVMax= 4.50D-03

 Cycle   3  Pass 1  IDiag  1:
 E= -1.10128373346031     Delta-E=       -0.000042335208 Rises=F Damp=F
 DIIS: error= 1.14D-04 at cycle   3 NSaved=   3.
 NSaved= 3 IEnMin= 3 EnMin= -1.10128373346031     IErMin= 3 ErrMin= 1.14D-04
 ErrMax= 1.14D-04  0.00D+00 EMaxC= 1.00D-01 BMatC= 2.49D-07 BMatP= 2.43D-05
 IDIUse=3 WtCom= 9.99D-01 WtEn= 1.14D-03
 Coeff-Com:  0.378D-01-0.319D+00 0.128D+01
 Coeff-En:   0.000D+00 0.000D+00 0.100D+01
 Coeff:      0.378D-01-0.318D+00 0.128D+01
 Gap=     0.529 Goal=   None    Shift=    0.000
 RMSDP=1.70D-05 MaxDP=2.97D-04 DE=-4.23D-05 OVMax= 6.50D-04

 Cycle   4  Pass 1  IDiag  1:
 E= -1.10128435935168     Delta-E=       -0.000000625891 Rises=F Damp=F
 DIIS: error= 9.26D-06 at cycle   4 NSaved=   4.
 NSaved= 4 IEnMin= 4 EnMin= -1.10128435935168     IErMin= 4 ErrMin= 9.26D-06
 ErrMax= 9.26D-06  0.00D+00 EMaxC= 1.00D-01 BMatC= 9.76D-10 BMatP= 2.49D-07
 IDIUse=1 WtCom= 1.00D+00 WtEn= 0.00D+00
 Coeff-Com: -0.893D-02 0.758D-01-0.329D+00 0.126D+01
 Coeff:     -0.893D-02 0.758D-01-0.329D+00 0.126D+01
 Gap=     0.529 Goal=   None    Shift=    0.000
 RMSDP=1.44D-06 MaxDP=2.67D-05 DE=-6.26D-07 OVMax= 5.14D-05

 Cycle   5  Pass 1  IDiag  1:
 E= -1.10128436255857     Delta-E=       -0.000000003207 Rises=F Damp=F
 DIIS: error= 4.97D-07 at cycle   5 NSaved=   5.
 NSaved= 5 IEnMin= 5 EnMin= -1.10128436255857     IErMin= 5 ErrMin= 4.97D-07
 ErrMax= 4.97D-07  0.00D+00 EMaxC= 1.00D-01 BMatC= 2.99D-12 BMatP= 9.76D-10
 IDIUse=1 WtCom= 1.00D+00 WtEn= 0.00D+00
 Coeff-Com:  0.110D-02-0.936D-02 0.413D-01-0.190D+00 0.116D+01
 Coeff:      0.110D-02-0.936D-02 0.413D-01-0.190D+00 0.116D+01
 Gap=     0.529 Goal=   None    Shift=    0.000
 RMSDP=4.91D-08 MaxDP=7.40D-07 DE=-3.21D-09 OVMax= 2.81D-06

 Cycle   6  Pass 1  IDiag  1:
 E= -1.10128436256810     Delta-E=       -0.000000000010 Rises=F Damp=F
 DIIS: error= 2.93D-08 at cycle   6 NSaved=   6.
 NSaved= 6 IEnMin= 6 EnMin= -1.10128436256810     IErMin= 6 ErrMin= 2.93D-08
 ErrMax= 2.93D-08  0.00D+00 EMaxC= 1.00D-01 BMatC= 1.27D-14 BMatP= 2.99D-12
 IDIUse=1 WtCom= 1.00D+00 WtEn= 0.00D+00
 Coeff-Com: -0.732D-04 0.616D-03-0.276D-02 0.136D-01-0.123D+00 0.111D+01
 Coeff:     -0.732D-04 0.616D-03-0.276D-02 0.136D-01-0.123D+00 0.111D+01
 Gap=     0.529 Goal=   None    Shift=    0.000
 RMSDP=5.76D-09 MaxDP=7.88D-08 DE=-9.53D-12 OVMax= 1.78D-07

 SCF Done:  E(RHF) =  -1.10128436257     A.U. after    6 cycles
            NFock=  6  Conv=0.58D-08     -V/T= 2.2030
 KE= 9.154281240959D-01 PE=-3.120830948863D+00 EE= 5.775739737212D-01
 Leave Link  502 at Mon Jun 10 14:08:52 2024, MaxMem=   536870912 cpu:               2.0 elap:               1.9
 (Enter C:\G16W\l801.exe)
 Range of M.O.s used for correlation:     1    82
 NBasis=    82 NAE=     1 NBE=     1 NFC=     0 NFV=     0
 NROrb=     82 NOA=     1 NOB=     1 NVA=    81 NVB=    81

 **** Warning!!: The largest alpha MO coefficient is  0.81395491D+02

 Leave Link  801 at Mon Jun 10 14:08:52 2024, MaxMem=   536870912 cpu:               0.0 elap:               0.1
 (Enter C:\G16W\l914.exe)
 RHF ground state
 Keep R1, R2, and R3 ints in memory in symmetry-blocked form, NReq=6641877.
 FoFCou: FMM=F IPFlag=           0 FMFlag=           0 FMFlg1=           0
         NFxFlg=           0 DoJE=F BraDBF=F KetDBF=F FulRan=T
         wScrn=  0.000000 ICntrl=       600 IOpCl=  0 I1Cent=           0 NGrid=           0
         NMat0=    1 NMatS0=   3403 NMatT0=    0 NMatD0=    1 NMtDS0=    0 NMtDT0=    0
 Petite list used in FoFCou.
 MDV=   536870912 DFT=F DoStab=F Mixed=F DoRPA=F DoScal=F NonHer=F
 Making orbital integer symmetry assigments:
 Orbital symmetries:
       Occupied  (SGG)
       Virtual   (SGG) (SGU) (SGU) (SGG) (PIU) (PIU) (PIG) (PIG)
                 (SGG) (SGU) (SGG) (SGU) (DLTG) (DLTG) (PIG) (PIG)
                 (PIU) (PIU) (SGG) (SGU) (DLTU) (DLTU) (PIU) (PIU)
                 (SGU) (PIG) (PIG) (SGG) (SGU) (PIU) (PIU) (DLTG)
                 (DLTG) (SGG) (SGU) (PIG) (PIG) (DLTU) (DLTU) (PIU)
                 (PIU) (SGG) (SGU) (PIG) (PIG) (SGG) (SGG) (DLTG)
                 (DLTG) (SGU) (PIU) (PIU) (PIG) (PIG) (SGU) (DLTU)
                 (DLTU) (PIU) (PIU) (SGG) (PIG) (PIG) (SGU) (SGG)
                 (SGU) (PIU) (PIU) (DLTG) (DLTG) (SGG) (DLTU) (DLTU)
                 (PIU) (PIU) (PIG) (PIG) (SGU) (PIG) (PIG) (SGG)
                 (SGU)
    81 initial guesses have been made.
 Convergence on wavefunction:    0.001000000000000
 Davidson Disk Diagonalization:  ConvIn= 1.00D-03 SkipCon=T Conv= 1.00D-03.
 Max sub-space:   324 roots to seek:    96 dimension of matrix:          162
 *** WARNING: Number of orthogonal guesses is           81
 Iteration     1 Dimension    81 NMult     0 NNew     81
 CISAX will form    81 AO SS matrices at one time.
 NMat=    81 NSing=     0 JSym2X= 2.
 New state      3 was old state      4
 New state      4 was old state      3
 New state      6 was old state      9
 New state      7 was old state     11
 New state      8 was old state     10
 New state      9 was old state      6
 New state     10 was old state      8
 New state     11 was old state      7
 New state     12 was old state     13
 New state     13 was old state     12
 New state     20 was old state     21
 New state     21 was old state     22
 New state     22 was old state     20
 New state     23 was old state     24
 New state     24 was old state     23
 New state     27 was old state     29
 New state     28 was old state     30
 New state     29 was old state     28
 New state     30 was old state     27
 New state     31 was old state     33
 New state     33 was old state     31
 New state     38 was old state     39
 New state     39 was old state     38
 New state     44 was old state     45
 New state     45 was old state     44
 New state     49 was old state     50
 New state     50 was old state     49
 New state     58 was old state     59
 New state     59 was old state     58
 New state     66 was old state     67
 New state     67 was old state     66
 New state     75 was old state     76
 New state     76 was old state     75
 Excitation Energies [eV] at current iteration:
 Root      1 :     6.269029742968932
 Root      2 :    10.425513152136070
 Root      3 :    10.472789580887460
 Root      4 :    10.472789580887460
 Root      5 :    12.125503072636700
 Root      6 :    12.687765012656310
 Root      7 :    12.713567046022780
 Root      8 :    12.713567046022780
 Root      9 :    12.744866401597320
 Root     10 :    12.758032977451810
 Root     11 :    12.758032977451850
 Root     12 :    13.071790617889520
 Root     13 :    13.071790617889610
 Root     14 :    13.199427214798980
 Root     15 :    13.424542164251790
 Root     16 :    13.694941776806720
 Root     17 :    13.824600310209310
 Root     18 :    13.824600310209360
 Root     19 :    13.851345664223630
 Root     20 :    14.316876349640070
 Root     21 :    14.316876349640130
 Root     22 :    14.318222324023850
 Root     23 :    14.338292521943970
 Root     24 :    14.338292521944000
 Root     25 :    14.674660803087730
 Root     26 :    15.364276643292180
 Root     27 :    15.382555746297800
 Root     28 :    15.382555746297850
 Root     29 :    15.799461800846540
 Root     30 :    15.799461800846710
 Root     31 :    17.015378015026770
 Root     32 :    17.125028079596000
 Root     33 :    17.125028079596060
 Root     34 :    17.144806924459480
 Root     35 :    19.342245721159530
 Root     36 :    19.548502022161110
 Root     37 :    19.548502022162840
 Root     38 :    19.702046376042810
 Root     39 :    19.702046376042820
 Root     40 :    19.800120233366330
 Root     41 :    19.800120233366460
 Root     42 :    20.902265335351900
 Root     43 :    22.720362688978270
 Root     44 :    24.421780339532580
 Root     45 :    24.421780339533510
 Root     46 :    26.859657758085600
 Root     47 :    29.964660612520040
 Root     48 :    29.964660612520070
 Root     49 :    31.593075854859440
 Root     50 :    31.593075854859480
 Root     51 :    32.010050281794930
 Root     52 :    32.361673131473690
 Root     53 :    34.944120341023240
 Root     54 :    34.944120341023500
 Root     55 :    37.585383571944970
 Root     56 :    37.951158253934820
 Root     57 :    37.951158253934850
 Root     58 :    38.011060339250330
 Root     59 :    38.011060339250340
 Root     60 :    45.469613554733710
 Root     61 :    51.976156302806320
 Root     62 :    51.976156302806550
 Root     63 :    63.984272828354360
 Root     64 :    79.531777207165120
 Root     65 :    92.689185475286810
 Root     66 :    96.110432414459710
 Root     67 :    96.110432414459950
 Root     68 :   103.094341297956500
 Root     69 :   103.094341297956800
 Root     70 :   103.903780971315400
 Root     71 :   114.953061598157000
 Root     72 :   114.953061598157300
 Root     73 :   115.766839249277100
 Root     74 :   115.766839249277500
 Root     75 :   121.012220835814200
 Root     76 :   121.012220835814200
 Root     77 :   131.021326292516100
 Root     78 :   136.635415863860300
 Root     79 :   136.635415863860500
 Root     80 :   137.485731350853000
 Root     81 :   178.839918203885000
 Convergence achieved for final wavefunctions.
 ***********************************************************************
 Excited states from <AA,BB:AA,BB> singles matrix:
 ***********************************************************************
 
 1PDM for each excited state written to RWF  633
 Ground to excited state transition densities written to RWF  633
 Ground to excited state transition electric dipole moments (Au):
       state          X           Y           Z        Dip. S.      Osc.
         1         0.0000      0.0000      0.0000      0.0000      0.0000
         2         0.0000      0.0000      0.0000      0.0000      0.0000
         3         0.0000      0.0000      0.0000      0.0000      0.0000
         4         0.0000      0.0000      0.0000      0.0000      0.0000
         5         0.0000      0.0000      0.0000      0.0000      0.0000
         6         0.0000      0.0000      0.0000      0.0000      0.0000
         7         0.0000      0.0000      0.0000      0.0000      0.0000
         8         0.0000      0.0000      0.0000      0.0000      0.0000
         9         0.0000      0.0000      0.0000      0.0000      0.0000
        10         0.0000      0.0000      0.0000      0.0000      0.0000
        11         0.0000      0.0000      0.0000      0.0000      0.0000
        12         0.0000      0.0000      0.0000      0.0000      0.0000
        13         0.0000      0.0000      0.0000      0.0000      0.0000
        14         0.0000      0.0000      0.0000      0.0000      0.0000
        15         0.0000      0.0000      0.0000      0.0000      0.0000
        16         0.0000      0.0000      0.0000      0.0000      0.0000
        17         0.0000      0.0000      0.0000      0.0000      0.0000
        18         0.0000      0.0000      0.0000      0.0000      0.0000
        19         0.0000      0.0000      0.0000      0.0000      0.0000
        20         0.0000      0.0000      0.0000      0.0000      0.0000
        21         0.0000      0.0000      0.0000      0.0000      0.0000
        22         0.0000      0.0000      0.0000      0.0000      0.0000
        23         0.0000      0.0000      0.0000      0.0000      0.0000
        24         0.0000      0.0000      0.0000      0.0000      0.0000
        25         0.0000      0.0000      0.0000      0.0000      0.0000
        26         0.0000      0.0000      0.0000      0.0000      0.0000
        27         0.0000      0.0000      0.0000      0.0000      0.0000
        28         0.0000      0.0000      0.0000      0.0000      0.0000
        29         0.0000      0.0000      0.0000      0.0000      0.0000
        30         0.0000      0.0000      0.0000      0.0000      0.0000
        31         0.0000      0.0000      0.0000      0.0000      0.0000
        32         0.0000      0.0000      0.0000      0.0000      0.0000
        33         0.0000      0.0000      0.0000      0.0000      0.0000
        34         0.0000      0.0000      0.0000      0.0000      0.0000
        35         0.0000      0.0000      0.0000      0.0000      0.0000
        36         0.0000      0.0000      0.0000      0.0000      0.0000
        37         0.0000      0.0000      0.0000      0.0000      0.0000
        38         0.0000      0.0000      0.0000      0.0000      0.0000
        39         0.0000      0.0000      0.0000      0.0000      0.0000
        40         0.0000      0.0000      0.0000      0.0000      0.0000
        41         0.0000      0.0000      0.0000      0.0000      0.0000
        42         0.0000      0.0000      0.0000      0.0000      0.0000
        43         0.0000      0.0000      0.0000      0.0000      0.0000
        44         0.0000      0.0000      0.0000      0.0000      0.0000
        45         0.0000      0.0000      0.0000      0.0000      0.0000
        46         0.0000      0.0000      0.0000      0.0000      0.0000
        47         0.0000      0.0000      0.0000      0.0000      0.0000
        48         0.0000      0.0000      0.0000      0.0000      0.0000
        49         0.0000      0.0000      0.0000      0.0000      0.0000
        50         0.0000      0.0000      0.0000      0.0000      0.0000
        51         0.0000      0.0000      0.0000      0.0000      0.0000
        52         0.0000      0.0000      0.0000      0.0000      0.0000
        53         0.0000      0.0000      0.0000      0.0000      0.0000
        54         0.0000      0.0000      0.0000      0.0000      0.0000
        55         0.0000      0.0000      0.0000      0.0000      0.0000
        56         0.0000      0.0000      0.0000      0.0000      0.0000
        57         0.0000      0.0000      0.0000      0.0000      0.0000
        58         0.0000      0.0000      0.0000      0.0000      0.0000
        59         0.0000      0.0000      0.0000      0.0000      0.0000
        60         0.0000      0.0000      0.0000      0.0000      0.0000
        61         0.0000      0.0000      0.0000      0.0000      0.0000
        62         0.0000      0.0000      0.0000      0.0000      0.0000
        63         0.0000      0.0000      0.0000      0.0000      0.0000
        64         0.0000      0.0000      0.0000      0.0000      0.0000
        65         0.0000      0.0000      0.0000      0.0000      0.0000
        66         0.0000      0.0000      0.0000      0.0000      0.0000
        67         0.0000      0.0000      0.0000      0.0000      0.0000
        68         0.0000      0.0000      0.0000      0.0000      0.0000
        69         0.0000      0.0000      0.0000      0.0000      0.0000
        70         0.0000      0.0000      0.0000      0.0000      0.0000
        71         0.0000      0.0000      0.0000      0.0000      0.0000
        72         0.0000      0.0000      0.0000      0.0000      0.0000
        73         0.0000      0.0000      0.0000      0.0000      0.0000
        74         0.0000      0.0000      0.0000      0.0000      0.0000
        75         0.0000      0.0000      0.0000      0.0000      0.0000
        76         0.0000      0.0000      0.0000      0.0000      0.0000
        77         0.0000      0.0000      0.0000      0.0000      0.0000
        78         0.0000      0.0000      0.0000      0.0000      0.0000
        79         0.0000      0.0000      0.0000      0.0000      0.0000
        80         0.0000      0.0000      0.0000      0.0000      0.0000
        81         0.0000      0.0000      0.0000      0.0000      0.0000
 Ground to excited state transition velocity dipole moments (Au):
       state          X           Y           Z        Dip. S.      Osc.
         1         0.0000      0.0000      0.0000      0.0000      0.0000
         2         0.0000      0.0000      0.0000      0.0000      0.0000
         3         0.0000      0.0000      0.0000      0.0000      0.0000
         4         0.0000      0.0000      0.0000      0.0000      0.0000
         5         0.0000      0.0000      0.0000      0.0000      0.0000
         6         0.0000      0.0000      0.0000      0.0000      0.0000
         7         0.0000      0.0000      0.0000      0.0000      0.0000
         8         0.0000      0.0000      0.0000      0.0000      0.0000
         9         0.0000      0.0000      0.0000      0.0000      0.0000
        10         0.0000      0.0000      0.0000      0.0000      0.0000
        11         0.0000      0.0000      0.0000      0.0000      0.0000
        12         0.0000      0.0000      0.0000      0.0000      0.0000
        13         0.0000      0.0000      0.0000      0.0000      0.0000
        14         0.0000      0.0000      0.0000      0.0000      0.0000
        15         0.0000      0.0000      0.0000      0.0000      0.0000
        16         0.0000      0.0000      0.0000      0.0000      0.0000
        17         0.0000      0.0000      0.0000      0.0000      0.0000
        18         0.0000      0.0000      0.0000      0.0000      0.0000
        19         0.0000      0.0000      0.0000      0.0000      0.0000
        20         0.0000      0.0000      0.0000      0.0000      0.0000
        21         0.0000      0.0000      0.0000      0.0000      0.0000
        22         0.0000      0.0000      0.0000      0.0000      0.0000
        23         0.0000      0.0000      0.0000      0.0000      0.0000
        24         0.0000      0.0000      0.0000      0.0000      0.0000
        25         0.0000      0.0000      0.0000      0.0000      0.0000
        26         0.0000      0.0000      0.0000      0.0000      0.0000
        27         0.0000      0.0000      0.0000      0.0000      0.0000
        28         0.0000      0.0000      0.0000      0.0000      0.0000
        29         0.0000      0.0000      0.0000      0.0000      0.0000
        30         0.0000      0.0000      0.0000      0.0000      0.0000
        31         0.0000      0.0000      0.0000      0.0000      0.0000
        32         0.0000      0.0000      0.0000      0.0000      0.0000
        33         0.0000      0.0000      0.0000      0.0000      0.0000
        34         0.0000      0.0000      0.0000      0.0000      0.0000
        35         0.0000      0.0000      0.0000      0.0000      0.0000
        36         0.0000      0.0000      0.0000      0.0000      0.0000
        37         0.0000      0.0000      0.0000      0.0000      0.0000
        38         0.0000      0.0000      0.0000      0.0000      0.0000
        39         0.0000      0.0000      0.0000      0.0000      0.0000
        40         0.0000      0.0000      0.0000      0.0000      0.0000
        41         0.0000      0.0000      0.0000      0.0000      0.0000
        42         0.0000      0.0000      0.0000      0.0000      0.0000
        43         0.0000      0.0000      0.0000      0.0000      0.0000
        44         0.0000      0.0000      0.0000      0.0000      0.0000
        45         0.0000      0.0000      0.0000      0.0000      0.0000
        46         0.0000      0.0000      0.0000      0.0000      0.0000
        47         0.0000      0.0000      0.0000      0.0000      0.0000
        48         0.0000      0.0000      0.0000      0.0000      0.0000
        49         0.0000      0.0000      0.0000      0.0000      0.0000
        50         0.0000      0.0000      0.0000      0.0000      0.0000
        51         0.0000      0.0000      0.0000      0.0000      0.0000
        52         0.0000      0.0000      0.0000      0.0000      0.0000
        53         0.0000      0.0000      0.0000      0.0000      0.0000
        54         0.0000      0.0000      0.0000      0.0000      0.0000
        55         0.0000      0.0000      0.0000      0.0000      0.0000
        56         0.0000      0.0000      0.0000      0.0000      0.0000
        57         0.0000      0.0000      0.0000      0.0000      0.0000
        58         0.0000      0.0000      0.0000      0.0000      0.0000
        59         0.0000      0.0000      0.0000      0.0000      0.0000
        60         0.0000      0.0000      0.0000      0.0000      0.0000
        61         0.0000      0.0000      0.0000      0.0000      0.0000
        62         0.0000      0.0000      0.0000      0.0000      0.0000
        63         0.0000      0.0000      0.0000      0.0000      0.0000
        64         0.0000      0.0000      0.0000      0.0000      0.0000
        65         0.0000      0.0000      0.0000      0.0000      0.0000
        66         0.0000      0.0000      0.0000      0.0000      0.0000
        67         0.0000      0.0000      0.0000      0.0000      0.0000
        68         0.0000      0.0000      0.0000      0.0000      0.0000
        69         0.0000      0.0000      0.0000      0.0000      0.0000
        70         0.0000      0.0000      0.0000      0.0000      0.0000
        71         0.0000      0.0000      0.0000      0.0000      0.0000
        72         0.0000      0.0000      0.0000      0.0000      0.0000
        73         0.0000      0.0000      0.0000      0.0000      0.0000
        74         0.0000      0.0000      0.0000      0.0000      0.0000
        75         0.0000      0.0000      0.0000      0.0000      0.0000
        76         0.0000      0.0000      0.0000      0.0000      0.0000
        77         0.0000      0.0000      0.0000      0.0000      0.0000
        78         0.0000      0.0000      0.0000      0.0000      0.0000
        79         0.0000      0.0000      0.0000      0.0000      0.0000
        80         0.0000      0.0000      0.0000      0.0000      0.0000
        81         0.0000      0.0000      0.0000      0.0000      0.0000
 Ground to excited state transition magnetic dipole moments (Au):
       state          X           Y           Z
         1         0.0000      0.0000      0.0000
         2         0.0000      0.0000      0.0000
         3         0.0000      0.0000      0.0000
         4         0.0000      0.0000      0.0000
         5         0.0000      0.0000      0.0000
         6         0.0000      0.0000      0.0000
         7         0.0000      0.0000      0.0000
         8         0.0000      0.0000      0.0000
         9         0.0000      0.0000      0.0000
        10         0.0000      0.0000      0.0000
        11         0.0000      0.0000      0.0000
        12         0.0000      0.0000      0.0000
        13         0.0000      0.0000      0.0000
        14         0.0000      0.0000      0.0000
        15         0.0000      0.0000      0.0000
        16         0.0000      0.0000      0.0000
        17         0.0000      0.0000      0.0000
        18         0.0000      0.0000      0.0000
        19         0.0000      0.0000      0.0000
        20         0.0000      0.0000      0.0000
        21         0.0000      0.0000      0.0000
        22         0.0000      0.0000      0.0000
        23         0.0000      0.0000      0.0000
        24         0.0000      0.0000      0.0000
        25         0.0000      0.0000      0.0000
        26         0.0000      0.0000      0.0000
        27         0.0000      0.0000      0.0000
        28         0.0000      0.0000      0.0000
        29         0.0000      0.0000      0.0000
        30         0.0000      0.0000      0.0000
        31         0.0000      0.0000      0.0000
        32         0.0000      0.0000      0.0000
        33         0.0000      0.0000      0.0000
        34         0.0000      0.0000      0.0000
        35         0.0000      0.0000      0.0000
        36         0.0000      0.0000      0.0000
        37         0.0000      0.0000      0.0000
        38         0.0000      0.0000      0.0000
        39         0.0000      0.0000      0.0000
        40         0.0000      0.0000      0.0000
        41         0.0000      0.0000      0.0000
        42         0.0000      0.0000      0.0000
        43         0.0000      0.0000      0.0000
        44         0.0000      0.0000      0.0000
        45         0.0000      0.0000      0.0000
        46         0.0000      0.0000      0.0000
        47         0.0000      0.0000      0.0000
        48         0.0000      0.0000      0.0000
        49         0.0000      0.0000      0.0000
        50         0.0000      0.0000      0.0000
        51         0.0000      0.0000      0.0000
        52         0.0000      0.0000      0.0000
        53         0.0000      0.0000      0.0000
        54         0.0000      0.0000      0.0000
        55         0.0000      0.0000      0.0000
        56         0.0000      0.0000      0.0000
        57         0.0000      0.0000      0.0000
        58         0.0000      0.0000      0.0000
        59         0.0000      0.0000      0.0000
        60         0.0000      0.0000      0.0000
        61         0.0000      0.0000      0.0000
        62         0.0000      0.0000      0.0000
        63         0.0000      0.0000      0.0000
        64         0.0000      0.0000      0.0000
        65         0.0000      0.0000      0.0000
        66         0.0000      0.0000      0.0000
        67         0.0000      0.0000      0.0000
        68         0.0000      0.0000      0.0000
        69         0.0000      0.0000      0.0000
        70         0.0000      0.0000      0.0000
        71         0.0000      0.0000      0.0000
        72         0.0000      0.0000      0.0000
        73         0.0000      0.0000      0.0000
        74         0.0000      0.0000      0.0000
        75         0.0000      0.0000      0.0000
        76         0.0000      0.0000      0.0000
        77         0.0000      0.0000      0.0000
        78         0.0000      0.0000      0.0000
        79         0.0000      0.0000      0.0000
        80         0.0000      0.0000      0.0000
        81         0.0000      0.0000      0.0000
 Ground to excited state transition velocity quadrupole moments (Au):
       state          XX          YY          ZZ          XY          XZ          YZ
         1         0.0000      0.0000      0.0000      0.0000      0.0000      0.0000
         2         0.0000      0.0000      0.0000      0.0000      0.0000      0.0000
         3         0.0000      0.0000      0.0000      0.0000      0.0000      0.0000
         4         0.0000      0.0000      0.0000      0.0000      0.0000      0.0000
         5         0.0000      0.0000      0.0000      0.0000      0.0000      0.0000
         6         0.0000      0.0000      0.0000      0.0000      0.0000      0.0000
         7         0.0000      0.0000      0.0000      0.0000      0.0000      0.0000
         8         0.0000      0.0000      0.0000      0.0000      0.0000      0.0000
         9         0.0000      0.0000      0.0000      0.0000      0.0000      0.0000
        10         0.0000      0.0000      0.0000      0.0000      0.0000      0.0000
        11         0.0000      0.0000      0.0000      0.0000      0.0000      0.0000
        12         0.0000      0.0000      0.0000      0.0000      0.0000      0.0000
        13         0.0000      0.0000      0.0000      0.0000      0.0000      0.0000
        14         0.0000      0.0000      0.0000      0.0000      0.0000      0.0000
        15         0.0000      0.0000      0.0000      0.0000      0.0000      0.0000
        16         0.0000      0.0000      0.0000      0.0000      0.0000      0.0000
        17         0.0000      0.0000      0.0000      0.0000      0.0000      0.0000
        18         0.0000      0.0000      0.0000      0.0000      0.0000      0.0000
        19         0.0000      0.0000      0.0000      0.0000      0.0000      0.0000
        20         0.0000      0.0000      0.0000      0.0000      0.0000      0.0000
        21         0.0000      0.0000      0.0000      0.0000      0.0000      0.0000
        22         0.0000      0.0000      0.0000      0.0000      0.0000      0.0000
        23         0.0000      0.0000      0.0000      0.0000      0.0000      0.0000
        24         0.0000      0.0000      0.0000      0.0000      0.0000      0.0000
        25         0.0000      0.0000      0.0000      0.0000      0.0000      0.0000
        26         0.0000      0.0000      0.0000      0.0000      0.0000      0.0000
        27         0.0000      0.0000      0.0000      0.0000      0.0000      0.0000
        28         0.0000      0.0000      0.0000      0.0000      0.0000      0.0000
        29         0.0000      0.0000      0.0000      0.0000      0.0000      0.0000
        30         0.0000      0.0000      0.0000      0.0000      0.0000      0.0000
        31         0.0000      0.0000      0.0000      0.0000      0.0000      0.0000
        32         0.0000      0.0000      0.0000      0.0000      0.0000      0.0000
        33         0.0000      0.0000      0.0000      0.0000      0.0000      0.0000
        34         0.0000      0.0000      0.0000      0.0000      0.0000      0.0000
        35         0.0000      0.0000      0.0000      0.0000      0.0000      0.0000
        36         0.0000      0.0000      0.0000      0.0000      0.0000      0.0000
        37         0.0000      0.0000      0.0000      0.0000      0.0000      0.0000
        38         0.0000      0.0000      0.0000      0.0000      0.0000      0.0000
        39         0.0000      0.0000      0.0000      0.0000      0.0000      0.0000
        40         0.0000      0.0000      0.0000      0.0000      0.0000      0.0000
        41         0.0000      0.0000      0.0000      0.0000      0.0000      0.0000
        42         0.0000      0.0000      0.0000      0.0000      0.0000      0.0000
        43         0.0000      0.0000      0.0000      0.0000      0.0000      0.0000
        44         0.0000      0.0000      0.0000      0.0000      0.0000      0.0000
        45         0.0000      0.0000      0.0000      0.0000      0.0000      0.0000
        46         0.0000      0.0000      0.0000      0.0000      0.0000      0.0000
        47         0.0000      0.0000      0.0000      0.0000      0.0000      0.0000
        48         0.0000      0.0000      0.0000      0.0000      0.0000      0.0000
        49         0.0000      0.0000      0.0000      0.0000      0.0000      0.0000
        50         0.0000      0.0000      0.0000      0.0000      0.0000      0.0000
        51         0.0000      0.0000      0.0000      0.0000      0.0000      0.0000
        52         0.0000      0.0000      0.0000      0.0000      0.0000      0.0000
        53         0.0000      0.0000      0.0000      0.0000      0.0000      0.0000
        54         0.0000      0.0000      0.0000      0.0000      0.0000      0.0000
        55         0.0000      0.0000      0.0000      0.0000      0.0000      0.0000
        56         0.0000      0.0000      0.0000      0.0000      0.0000      0.0000
        57         0.0000      0.0000      0.0000      0.0000      0.0000      0.0000
        58         0.0000      0.0000      0.0000      0.0000      0.0000      0.0000
        59         0.0000      0.0000      0.0000      0.0000      0.0000      0.0000
        60         0.0000      0.0000      0.0000      0.0000      0.0000      0.0000
        61         0.0000      0.0000      0.0000      0.0000      0.0000      0.0000
        62         0.0000      0.0000      0.0000      0.0000      0.0000      0.0000
        63         0.0000      0.0000      0.0000      0.0000      0.0000      0.0000
        64         0.0000      0.0000      0.0000      0.0000      0.0000      0.0000
        65         0.0000      0.0000      0.0000      0.0000      0.0000      0.0000
        66         0.0000      0.0000      0.0000      0.0000      0.0000      0.0000
        67         0.0000      0.0000      0.0000      0.0000      0.0000      0.0000
        68         0.0000      0.0000      0.0000      0.0000      0.0000      0.0000
        69         0.0000      0.0000      0.0000      0.0000      0.0000      0.0000
        70         0.0000      0.0000      0.0000      0.0000      0.0000      0.0000
        71         0.0000      0.0000      0.0000      0.0000      0.0000      0.0000
        72         0.0000      0.0000      0.0000      0.0000      0.0000      0.0000
        73         0.0000      0.0000      0.0000      0.0000      0.0000      0.0000
        74         0.0000      0.0000      0.0000      0.0000      0.0000      0.0000
        75         0.0000      0.0000      0.0000      0.0000      0.0000      0.0000
        76         0.0000      0.0000      0.0000      0.0000      0.0000      0.0000
        77         0.0000      0.0000      0.0000      0.0000      0.0000      0.0000
        78         0.0000      0.0000      0.0000      0.0000      0.0000      0.0000
        79         0.0000      0.0000      0.0000      0.0000      0.0000      0.0000
        80         0.0000      0.0000      0.0000      0.0000      0.0000      0.0000
        81         0.0000      0.0000      0.0000      0.0000      0.0000      0.0000
 <0|del|b> * <b|rxdel|0> + <0|del|b> * <b|delr+rdel|0>
 Rotatory Strengths (R) in cgs (10**-40 erg-esu-cm/Gauss)
       state          XX          YY          ZZ    R(velocity)    E-M Angle
         1         0.0000      0.0000      0.0000      0.0000       90.00
         2         0.0000      0.0000      0.0000      0.0000       90.00
         3         0.0000      0.0000      0.0000      0.0000       90.00
         4         0.0000      0.0000      0.0000      0.0000       90.00
         5         0.0000      0.0000      0.0000      0.0000       90.00
         6         0.0000      0.0000      0.0000      0.0000       90.00
         7         0.0000      0.0000      0.0000      0.0000       90.00
         8         0.0000      0.0000      0.0000      0.0000       90.00
         9         0.0000      0.0000      0.0000      0.0000       90.00
        10         0.0000      0.0000      0.0000      0.0000       90.00
        11         0.0000      0.0000      0.0000      0.0000       90.00
        12         0.0000      0.0000      0.0000      0.0000       90.00
        13         0.0000      0.0000      0.0000      0.0000       90.00
        14         0.0000      0.0000      0.0000      0.0000       90.00
        15         0.0000      0.0000      0.0000      0.0000       90.00
        16         0.0000      0.0000      0.0000      0.0000       90.00
        17         0.0000      0.0000      0.0000      0.0000       90.00
        18         0.0000      0.0000      0.0000      0.0000       90.00
        19         0.0000      0.0000      0.0000      0.0000       90.00
        20         0.0000      0.0000      0.0000      0.0000       90.00
        21         0.0000      0.0000      0.0000      0.0000       90.00
        22         0.0000      0.0000      0.0000      0.0000       90.00
        23         0.0000      0.0000      0.0000      0.0000       90.00
        24         0.0000      0.0000      0.0000      0.0000       90.00
        25         0.0000      0.0000      0.0000      0.0000       90.00
        26         0.0000      0.0000      0.0000      0.0000       90.00
        27         0.0000      0.0000      0.0000      0.0000       90.00
        28         0.0000      0.0000      0.0000      0.0000       90.00
        29         0.0000      0.0000      0.0000      0.0000       90.00
        30         0.0000      0.0000      0.0000      0.0000       90.00
        31         0.0000      0.0000      0.0000      0.0000       90.00
        32         0.0000      0.0000      0.0000      0.0000       90.00
        33         0.0000      0.0000      0.0000      0.0000       90.00
        34         0.0000      0.0000      0.0000      0.0000       90.00
        35         0.0000      0.0000      0.0000      0.0000       90.00
        36         0.0000      0.0000      0.0000      0.0000       90.00
        37         0.0000      0.0000      0.0000      0.0000       90.00
        38         0.0000      0.0000      0.0000      0.0000       90.00
        39         0.0000      0.0000      0.0000      0.0000       90.00
        40         0.0000      0.0000      0.0000      0.0000       90.00
        41         0.0000      0.0000      0.0000      0.0000       90.00
        42         0.0000      0.0000      0.0000      0.0000       90.00
        43         0.0000      0.0000      0.0000      0.0000       90.00
        44         0.0000      0.0000      0.0000      0.0000       90.00
        45         0.0000      0.0000      0.0000      0.0000       90.00
        46         0.0000      0.0000      0.0000      0.0000       90.00
        47         0.0000      0.0000      0.0000      0.0000       90.00
        48         0.0000      0.0000      0.0000      0.0000       90.00
        49         0.0000      0.0000      0.0000      0.0000       90.00
        50         0.0000      0.0000      0.0000      0.0000       90.00
        51         0.0000      0.0000      0.0000      0.0000       90.00
        52         0.0000      0.0000      0.0000      0.0000       90.00
        53         0.0000      0.0000      0.0000      0.0000       90.00
        54         0.0000      0.0000      0.0000      0.0000       90.00
        55         0.0000      0.0000      0.0000      0.0000       90.00
        56         0.0000      0.0000      0.0000      0.0000       90.00
        57         0.0000      0.0000      0.0000      0.0000       90.00
        58         0.0000      0.0000      0.0000      0.0000       90.00
        59         0.0000      0.0000      0.0000      0.0000       90.00
        60         0.0000      0.0000      0.0000      0.0000       90.00
        61         0.0000      0.0000      0.0000      0.0000       90.00
        62         0.0000      0.0000      0.0000      0.0000       90.00
        63         0.0000      0.0000      0.0000      0.0000       90.00
        64         0.0000      0.0000      0.0000      0.0000       90.00
        65         0.0000      0.0000      0.0000      0.0000       90.00
        66         0.0000      0.0000      0.0000      0.0000       90.00
        67         0.0000      0.0000      0.0000      0.0000       90.00
        68         0.0000      0.0000      0.0000      0.0000       90.00
        69         0.0000      0.0000      0.0000      0.0000       90.00
        70         0.0000      0.0000      0.0000      0.0000       90.00
        71         0.0000      0.0000      0.0000      0.0000       90.00
        72         0.0000      0.0000      0.0000      0.0000       90.00
        73         0.0000      0.0000      0.0000      0.0000       90.00
        74         0.0000      0.0000      0.0000      0.0000       90.00
        75         0.0000      0.0000      0.0000      0.0000       90.00
        76         0.0000      0.0000      0.0000      0.0000       90.00
        77         0.0000      0.0000      0.0000      0.0000       90.00
        78         0.0000      0.0000      0.0000      0.0000       90.00
        79         0.0000      0.0000      0.0000      0.0000       90.00
        80         0.0000      0.0000      0.0000      0.0000       90.00
        81         0.0000      0.0000      0.0000      0.0000       90.00
 1/2[<0|r|b>*<b|rxdel|0> + (<0|rxdel|b>*<b|r|0>)*]
 Rotatory Strengths (R) in cgs (10**-40 erg-esu-cm/Gauss)
       state          XX          YY          ZZ     R(length)
         1         0.0000      0.0000      0.0000      0.0000
         2         0.0000      0.0000      0.0000      0.0000
         3         0.0000      0.0000      0.0000      0.0000
         4         0.0000      0.0000      0.0000      0.0000
         5         0.0000      0.0000      0.0000      0.0000
         6         0.0000      0.0000      0.0000      0.0000
         7         0.0000      0.0000      0.0000      0.0000
         8         0.0000      0.0000      0.0000      0.0000
         9         0.0000      0.0000      0.0000      0.0000
        10         0.0000      0.0000      0.0000      0.0000
        11         0.0000      0.0000      0.0000      0.0000
        12         0.0000      0.0000      0.0000      0.0000
        13         0.0000      0.0000      0.0000      0.0000
        14         0.0000      0.0000      0.0000      0.0000
        15         0.0000      0.0000      0.0000      0.0000
        16         0.0000      0.0000      0.0000      0.0000
        17         0.0000      0.0000      0.0000      0.0000
        18         0.0000      0.0000      0.0000      0.0000
        19         0.0000      0.0000      0.0000      0.0000
        20         0.0000      0.0000      0.0000      0.0000
        21         0.0000      0.0000      0.0000      0.0000
        22         0.0000      0.0000      0.0000      0.0000
        23         0.0000      0.0000      0.0000      0.0000
        24         0.0000      0.0000      0.0000      0.0000
        25         0.0000      0.0000      0.0000      0.0000
        26         0.0000      0.0000      0.0000      0.0000
        27         0.0000      0.0000      0.0000      0.0000
        28         0.0000      0.0000      0.0000      0.0000
        29         0.0000      0.0000      0.0000      0.0000
        30         0.0000      0.0000      0.0000      0.0000
        31         0.0000      0.0000      0.0000      0.0000
        32         0.0000      0.0000      0.0000      0.0000
        33         0.0000      0.0000      0.0000      0.0000
        34         0.0000      0.0000      0.0000      0.0000
        35         0.0000      0.0000      0.0000      0.0000
        36         0.0000      0.0000      0.0000      0.0000
        37         0.0000      0.0000      0.0000      0.0000
        38         0.0000      0.0000      0.0000      0.0000
        39         0.0000      0.0000      0.0000      0.0000
        40         0.0000      0.0000      0.0000      0.0000
        41         0.0000      0.0000      0.0000      0.0000
        42         0.0000      0.0000      0.0000      0.0000
        43         0.0000      0.0000      0.0000      0.0000
        44         0.0000      0.0000      0.0000      0.0000
        45         0.0000      0.0000      0.0000      0.0000
        46         0.0000      0.0000      0.0000      0.0000
        47         0.0000      0.0000      0.0000      0.0000
        48         0.0000      0.0000      0.0000      0.0000
        49         0.0000      0.0000      0.0000      0.0000
        50         0.0000      0.0000      0.0000      0.0000
        51         0.0000      0.0000      0.0000      0.0000
        52         0.0000      0.0000      0.0000      0.0000
        53         0.0000      0.0000      0.0000      0.0000
        54         0.0000      0.0000      0.0000      0.0000
        55         0.0000      0.0000      0.0000      0.0000
        56         0.0000      0.0000      0.0000      0.0000
        57         0.0000      0.0000      0.0000      0.0000
        58         0.0000      0.0000      0.0000      0.0000
        59         0.0000      0.0000      0.0000      0.0000
        60         0.0000      0.0000      0.0000      0.0000
        61         0.0000      0.0000      0.0000      0.0000
        62         0.0000      0.0000      0.0000      0.0000
        63         0.0000      0.0000      0.0000      0.0000
        64         0.0000      0.0000      0.0000      0.0000
        65         0.0000      0.0000      0.0000      0.0000
        66         0.0000      0.0000      0.0000      0.0000
        67         0.0000      0.0000      0.0000      0.0000
        68         0.0000      0.0000      0.0000      0.0000
        69         0.0000      0.0000      0.0000      0.0000
        70         0.0000      0.0000      0.0000      0.0000
        71         0.0000      0.0000      0.0000      0.0000
        72         0.0000      0.0000      0.0000      0.0000
        73         0.0000      0.0000      0.0000      0.0000
        74         0.0000      0.0000      0.0000      0.0000
        75         0.0000      0.0000      0.0000      0.0000
        76         0.0000      0.0000      0.0000      0.0000
        77         0.0000      0.0000      0.0000      0.0000
        78         0.0000      0.0000      0.0000      0.0000
        79         0.0000      0.0000      0.0000      0.0000
        80         0.0000      0.0000      0.0000      0.0000
        81         0.0000      0.0000      0.0000      0.0000
  1/2[<0|del|b>*<b|r|0> + (<0|r|b>*<b|del|0>)*] (Au)
       state          X           Y           Z        Dip. S.   Osc.(frdel)
         1         0.0000      0.0000      0.0000      0.0000      0.0000
         2         0.0000      0.0000      0.0000      0.0000      0.0000
         3         0.0000      0.0000      0.0000      0.0000      0.0000
         4         0.0000      0.0000      0.0000      0.0000      0.0000
         5         0.0000      0.0000      0.0000      0.0000      0.0000
         6         0.0000      0.0000      0.0000      0.0000      0.0000
         7         0.0000      0.0000      0.0000      0.0000      0.0000
         8         0.0000      0.0000      0.0000      0.0000      0.0000
         9         0.0000      0.0000      0.0000      0.0000      0.0000
        10         0.0000      0.0000      0.0000      0.0000      0.0000
        11         0.0000      0.0000      0.0000      0.0000      0.0000
        12         0.0000      0.0000      0.0000      0.0000      0.0000
        13         0.0000      0.0000      0.0000      0.0000      0.0000
        14         0.0000      0.0000      0.0000      0.0000      0.0000
        15         0.0000      0.0000      0.0000      0.0000      0.0000
        16         0.0000      0.0000      0.0000      0.0000      0.0000
        17         0.0000      0.0000      0.0000      0.0000      0.0000
        18         0.0000      0.0000      0.0000      0.0000      0.0000
        19         0.0000      0.0000      0.0000      0.0000      0.0000
        20         0.0000      0.0000      0.0000      0.0000      0.0000
        21         0.0000      0.0000      0.0000      0.0000      0.0000
        22         0.0000      0.0000      0.0000      0.0000      0.0000
        23         0.0000      0.0000      0.0000      0.0000      0.0000
        24         0.0000      0.0000      0.0000      0.0000      0.0000
        25         0.0000      0.0000      0.0000      0.0000      0.0000
        26         0.0000      0.0000      0.0000      0.0000      0.0000
        27         0.0000      0.0000      0.0000      0.0000      0.0000
        28         0.0000      0.0000      0.0000      0.0000      0.0000
        29         0.0000      0.0000      0.0000      0.0000      0.0000
        30         0.0000      0.0000      0.0000      0.0000      0.0000
        31         0.0000      0.0000      0.0000      0.0000      0.0000
        32         0.0000      0.0000      0.0000      0.0000      0.0000
        33         0.0000      0.0000      0.0000      0.0000      0.0000
        34         0.0000      0.0000      0.0000      0.0000      0.0000
        35         0.0000      0.0000      0.0000      0.0000      0.0000
        36         0.0000      0.0000      0.0000      0.0000      0.0000
        37         0.0000      0.0000      0.0000      0.0000      0.0000
        38         0.0000      0.0000      0.0000      0.0000      0.0000
        39         0.0000      0.0000      0.0000      0.0000      0.0000
        40         0.0000      0.0000      0.0000      0.0000      0.0000
        41         0.0000      0.0000      0.0000      0.0000      0.0000
        42         0.0000      0.0000      0.0000      0.0000      0.0000
        43         0.0000      0.0000      0.0000      0.0000      0.0000
        44         0.0000      0.0000      0.0000      0.0000      0.0000
        45         0.0000      0.0000      0.0000      0.0000      0.0000
        46         0.0000      0.0000      0.0000      0.0000      0.0000
        47         0.0000      0.0000      0.0000      0.0000      0.0000
        48         0.0000      0.0000      0.0000      0.0000      0.0000
        49         0.0000      0.0000      0.0000      0.0000      0.0000
        50         0.0000      0.0000      0.0000      0.0000      0.0000
        51         0.0000      0.0000      0.0000      0.0000      0.0000
        52         0.0000      0.0000      0.0000      0.0000      0.0000
        53         0.0000      0.0000      0.0000      0.0000      0.0000
        54         0.0000      0.0000      0.0000      0.0000      0.0000
        55         0.0000      0.0000      0.0000      0.0000      0.0000
        56         0.0000      0.0000      0.0000      0.0000      0.0000
        57         0.0000      0.0000      0.0000      0.0000      0.0000
        58         0.0000      0.0000      0.0000      0.0000      0.0000
        59         0.0000      0.0000      0.0000      0.0000      0.0000
        60         0.0000      0.0000      0.0000      0.0000      0.0000
        61         0.0000      0.0000      0.0000      0.0000      0.0000
        62         0.0000      0.0000      0.0000      0.0000      0.0000
        63         0.0000      0.0000      0.0000      0.0000      0.0000
        64         0.0000      0.0000      0.0000      0.0000      0.0000
        65         0.0000      0.0000      0.0000      0.0000      0.0000
        66         0.0000      0.0000      0.0000      0.0000      0.0000
        67         0.0000      0.0000      0.0000      0.0000      0.0000
        68         0.0000      0.0000      0.0000      0.0000      0.0000
        69         0.0000      0.0000      0.0000      0.0000      0.0000
        70         0.0000      0.0000      0.0000      0.0000      0.0000
        71         0.0000      0.0000      0.0000      0.0000      0.0000
        72         0.0000      0.0000      0.0000      0.0000      0.0000
        73         0.0000      0.0000      0.0000      0.0000      0.0000
        74         0.0000      0.0000      0.0000      0.0000      0.0000
        75         0.0000      0.0000      0.0000      0.0000      0.0000
        76         0.0000      0.0000      0.0000      0.0000      0.0000
        77         0.0000      0.0000      0.0000      0.0000      0.0000
        78         0.0000      0.0000      0.0000      0.0000      0.0000
        79         0.0000      0.0000      0.0000      0.0000      0.0000
        80         0.0000      0.0000      0.0000      0.0000      0.0000
        81         0.0000      0.0000      0.0000      0.0000      0.0000

 Excitation energies and oscillator strengths:
 
 Excited State   1:      Triplet-SGU    6.2690 eV  197.77 nm  f=0.0000  <S**2>=2.000
       1 ->  4         0.10531
       1 -> 11        -0.24636
       1 -> 13         0.39057
       1 -> 26        -0.39956
       1 -> 30         0.28554
       1 -> 44         0.14802
 This state for optimization and/or second-order correction.
 Total Energy, E(CIS/TDA) = -0.870901758540    
 Copying the excited state density for this state as the 1-particle RhoCI density.
 
 Excited State   2:      Triplet-SGG   10.4255 eV  118.92 nm  f=0.0000  <S**2>=2.000
       1 ->  2         0.19211
       1 ->  5         0.40534
       1 -> 12         0.45349
       1 -> 29        -0.25753
       1 -> 43         0.11964
 
 Excited state symmetry could not be determined.
 Excited State   3:      Triplet-?Sym   10.4728 eV  118.39 nm  f=0.0000  <S**2>=2.000
       1 ->  6         0.26676
       1 ->  7         0.18476
       1 -> 18         0.41280
       1 -> 19         0.28591
       1 -> 24        -0.16491
       1 -> 25        -0.11422
       1 -> 31         0.17520
       1 -> 32         0.25296
 
 Excited state symmetry could not be determined.
 Excited State   4:      Triplet-?Sym   10.4728 eV  118.39 nm  f=0.0000  <S**2>=2.000
       1 ->  6        -0.18476
       1 ->  7         0.26676
       1 -> 18        -0.28591
       1 -> 19         0.41280
       1 -> 24         0.11422
       1 -> 25        -0.16491
       1 -> 31         0.25296
       1 -> 32        -0.17520
 
 Excited State   5:      Triplet-SGU   12.1255 eV  102.25 nm  f=0.0000  <S**2>=2.000
       1 ->  3         0.23725
       1 ->  4         0.47637
       1 -> 11        -0.36800
       1 -> 26         0.20839
       1 -> 30        -0.17028
 
 Excited State   6:      Triplet-SGG   12.6878 eV   97.72 nm  f=0.0000  <S**2>=2.000
       1 ->  2         0.55517
       1 ->  5         0.23078
       1 -> 12        -0.30090
       1 -> 29         0.18854
 
 Excited state symmetry could not be determined.
 Excited State   7:      Triplet-?Sym   12.7136 eV   97.52 nm  f=0.0000  <S**2>=2.000
       1 ->  6         0.47324
       1 ->  7        -0.40631
       1 -> 18        -0.15995
       1 -> 19         0.13733
       1 -> 31         0.14773
       1 -> 32        -0.17207
 
 Excited state symmetry could not be determined.
 Excited State   8:      Triplet-?Sym   12.7136 eV   97.52 nm  f=0.0000  <S**2>=2.000
       1 ->  6         0.40631
       1 ->  7         0.47324
       1 -> 18        -0.13733
       1 -> 19        -0.15995
       1 -> 31        -0.17207
       1 -> 32        -0.14773
 
 Excited State   9:      Triplet-SGG   12.7449 eV   97.28 nm  f=0.0000  <S**2>=2.000
       1 -> 10         0.58055
       1 -> 20        -0.38024
 
 Excited state symmetry could not be determined.
 Excited State  10:      Triplet-?Sym   12.7580 eV   97.18 nm  f=0.0000  <S**2>=2.000
       1 ->  9         0.56960
       1 -> 17        -0.37762
       1 -> 27         0.15121
 
 Excited state symmetry could not be determined.
 Excited State  11:      Triplet-?Sym   12.7580 eV   97.18 nm  f=0.0000  <S**2>=2.000
       1 ->  8         0.56960
       1 -> 16        -0.37762
       1 -> 28         0.15121
 
 Excited state symmetry could not be determined.
 Excited State  12:      Triplet-?Sym   13.0718 eV   94.85 nm  f=0.0000  <S**2>=2.000
       1 -> 14         0.68477
       1 -> 15         0.10155
       1 -> 33         0.14211
 
 Excited state symmetry could not be determined.
 Excited State  13:      Triplet-?Sym   13.0718 eV   94.85 nm  f=0.0000  <S**2>=2.000
       1 -> 14        -0.10155
       1 -> 15         0.68477
       1 -> 34         0.14211
 
 Excited State  14:      Triplet-SGU   13.1994 eV   93.93 nm  f=0.0000  <S**2>=2.000
       1 ->  3         0.57659
       1 -> 11         0.34240
       1 -> 26        -0.12723
       1 -> 30         0.11652
 
 Excited State  15:      Triplet-SGG   13.4245 eV   92.36 nm  f=0.0000  <S**2>=2.000
       1 ->  2        -0.39279
       1 ->  5         0.52414
       1 -> 12        -0.18125
       1 -> 29         0.16717
 
 Excited State  16:      Triplet-SGU   13.6949 eV   90.53 nm  f=0.0000  <S**2>=2.000
       1 ->  3        -0.33144
       1 ->  4         0.49643
       1 -> 11         0.28769
       1 -> 13        -0.16827
       1 -> 26        -0.12223
       1 -> 30         0.11658
 
 Excited state symmetry could not be determined.
 Excited State  17:      Triplet-?Sym   13.8246 eV   89.68 nm  f=0.0000  <S**2>=2.000
       1 ->  8         0.35198
       1 ->  9         0.21468
       1 -> 16         0.43129
       1 -> 17         0.26306
       1 -> 27        -0.13418
       1 -> 28        -0.22000
 
 Excited state symmetry could not be determined.
 Excited State  18:      Triplet-?Sym   13.8246 eV   89.68 nm  f=0.0000  <S**2>=2.000
       1 ->  8        -0.21468
       1 ->  9         0.35198
       1 -> 16        -0.26306
       1 -> 17         0.43129
       1 -> 27        -0.22000
       1 -> 28         0.13418
 
 Excited State  19:      Triplet-SGG   13.8513 eV   89.51 nm  f=0.0000  <S**2>=2.000
       1 -> 10         0.39667
       1 -> 20         0.54499
       1 -> 29        -0.10282
       1 -> 35         0.17188
 
 Excited state symmetry could not be determined.
 Excited State  20:      Triplet-?Sym   14.3169 eV   86.60 nm  f=0.0000  <S**2>=2.000
       1 -> 18         0.30018
       1 -> 24         0.61731
       1 -> 25        -0.12524
 
 Excited state symmetry could not be determined.
 Excited State  21:      Triplet-?Sym   14.3169 eV   86.60 nm  f=0.0000  <S**2>=2.000
       1 -> 19         0.30018
       1 -> 24         0.12524
       1 -> 25         0.61731
 
 Excited State  22:      Triplet-SGU   14.3182 eV   86.59 nm  f=0.0000  <S**2>=2.000
       1 -> 21         0.70058
 
 Excited state symmetry could not be determined.
 Excited State  23:      Triplet-?Sym   14.3383 eV   86.47 nm  f=0.0000  <S**2>=2.000
       1 -> 22         0.70350
 
 Excited state symmetry could not be determined.
 Excited State  24:      Triplet-?Sym   14.3383 eV   86.47 nm  f=0.0000  <S**2>=2.000
       1 -> 23         0.70350
 
 Excited State  25:      Triplet-SGU   14.6747 eV   84.49 nm  f=0.0000  <S**2>=2.000
       1 -> 11         0.32139
       1 -> 13         0.54942
       1 -> 26         0.14495
       1 -> 30        -0.22826
 
 Excited State  26:      Triplet-SGG   15.3643 eV   80.70 nm  f=0.0000  <S**2>=2.000
       1 -> 12         0.40360
       1 -> 29         0.54378
       1 -> 43        -0.16951
 
 Excited state symmetry could not be determined.
 Excited State  27:      Triplet-?Sym   15.3826 eV   80.60 nm  f=0.0000  <S**2>=2.000
       1 -> 19        -0.32697
       1 -> 25         0.21235
       1 -> 31         0.56055
       1 -> 53         0.10609
 
 Excited state symmetry could not be determined.
 Excited State  28:      Triplet-?Sym   15.3826 eV   80.60 nm  f=0.0000  <S**2>=2.000
       1 -> 18        -0.32697
       1 -> 24         0.21235
       1 -> 32         0.56055
       1 -> 52         0.10609
 
 Excited state symmetry could not be determined.
 Excited State  29:      Triplet-?Sym   15.7995 eV   78.47 nm  f=0.0000  <S**2>=2.000
       1 -> 16         0.29003
       1 -> 17         0.12645
       1 -> 27         0.23832
       1 -> 28         0.54661
       1 -> 38        -0.17343
 
 Excited state symmetry could not be determined.
 Excited State  30:      Triplet-?Sym   15.7995 eV   78.47 nm  f=0.0000  <S**2>=2.000
       1 -> 16        -0.12645
       1 -> 17         0.29003
       1 -> 27         0.54661
       1 -> 28        -0.23832
       1 -> 37        -0.17343
 
 Excited State  31:      Triplet-SGU   17.0154 eV   72.87 nm  f=0.0000  <S**2>=2.000
       1 -> 26         0.49156
       1 -> 30         0.44533
       1 -> 44         0.19568
 
 Excited state symmetry could not be determined.
 Excited State  32:      Triplet-?Sym   17.1250 eV   72.40 nm  f=0.0000  <S**2>=2.000
       1 -> 14        -0.14351
       1 -> 33         0.68541
 
 Excited state symmetry could not be determined.
 Excited State  33:      Triplet-?Sym   17.1250 eV   72.40 nm  f=0.0000  <S**2>=2.000
       1 -> 15        -0.14351
       1 -> 34         0.68541
 
 Excited State  34:      Triplet-SGG   17.1448 eV   72.32 nm  f=0.0000  <S**2>=2.000
       1 -> 20        -0.20893
       1 -> 35         0.65305
       1 -> 43        -0.12977
 
 Excited State  35:      Triplet-SGU   19.3422 eV   64.10 nm  f=0.0000  <S**2>=2.000
       1 -> 30        -0.15412
       1 -> 36         0.68276
 
 Excited state symmetry could not be determined.
 Excited State  36:      Triplet-?Sym   19.5485 eV   63.42 nm  f=0.0000  <S**2>=2.000
       1 -> 27         0.23069
       1 -> 37         0.64838
       1 -> 46        -0.14880
 
 Excited state symmetry could not be determined.
 Excited State  37:      Triplet-?Sym   19.5485 eV   63.42 nm  f=0.0000  <S**2>=2.000
       1 -> 28         0.23069
       1 -> 38         0.64838
       1 -> 45        -0.14880
 
 Excited state symmetry could not be determined.
 Excited State  38:      Triplet-?Sym   19.7020 eV   62.93 nm  f=0.0000  <S**2>=2.000
       1 -> 31         0.10831
       1 -> 41         0.34677
       1 -> 42         0.59649
 
 Excited state symmetry could not be determined.
 Excited State  39:      Triplet-?Sym   19.7020 eV   62.93 nm  f=0.0000  <S**2>=2.000
       1 -> 32         0.10831
       1 -> 41         0.59649
       1 -> 42        -0.34677
 
 Excited state symmetry could not be determined.
 Excited State  40:      Triplet-?Sym   19.8001 eV   62.62 nm  f=0.0000  <S**2>=2.000
       1 -> 39         0.70230
 
 Excited state symmetry could not be determined.
 Excited State  41:      Triplet-?Sym   19.8001 eV   62.62 nm  f=0.0000  <S**2>=2.000
       1 -> 40         0.70230
 
 Excited State  42:      Triplet-SGG   20.9023 eV   59.32 nm  f=0.0000  <S**2>=2.000
       1 -> 29         0.24001
       1 -> 35         0.13364
       1 -> 43         0.63283
       1 -> 47        -0.13468
 
 Excited State  43:      Triplet-SGU   22.7204 eV   54.57 nm  f=0.0000  <S**2>=2.000
       1 -> 30        -0.29506
       1 -> 44         0.61981
       1 -> 51        -0.13123
 
 Excited state symmetry could not be determined.
 Excited State  44:      Triplet-?Sym   24.4218 eV   50.77 nm  f=0.0000  <S**2>=2.000
       1 -> 38         0.17714
       1 -> 45         0.67854
 
 Excited state symmetry could not be determined.
 Excited State  45:      Triplet-?Sym   24.4218 eV   50.77 nm  f=0.0000  <S**2>=2.000
       1 -> 37         0.17714
       1 -> 46         0.67854
 
 Excited State  46:      Triplet-SGG   26.8597 eV   46.16 nm  f=0.0000  <S**2>=2.000
       1 -> 35         0.10037
       1 -> 43         0.13355
       1 -> 47         0.67747
 
 Excited state symmetry could not be determined.
 Excited State  47:      Triplet-?Sym   29.9647 eV   41.38 nm  f=0.0000  <S**2>=2.000
       1 -> 32        -0.12372
       1 -> 52         0.69250
 
 Excited state symmetry could not be determined.
 Excited State  48:      Triplet-?Sym   29.9647 eV   41.38 nm  f=0.0000  <S**2>=2.000
       1 -> 31        -0.12372
       1 -> 53         0.69250
 
 Excited state symmetry could not be determined.
 Excited State  49:      Triplet-?Sym   31.5931 eV   39.24 nm  f=0.0000  <S**2>=2.000
       1 -> 49         0.70282
 
 Excited state symmetry could not be determined.
 Excited State  50:      Triplet-?Sym   31.5931 eV   39.24 nm  f=0.0000  <S**2>=2.000
       1 -> 50         0.70282
 
 Excited State  51:      Triplet-SGG   32.0101 eV   38.73 nm  f=0.0000  <S**2>=2.000
       1 -> 48         0.68478
       1 -> 61        -0.10291
 
 Excited State  52:      Triplet-SGU   32.3617 eV   38.31 nm  f=0.0000  <S**2>=2.000
       1 -> 44         0.16473
       1 -> 51         0.68234
 
 Excited state symmetry could not be determined.
 Excited State  53:      Triplet-?Sym   34.9441 eV   35.48 nm  f=0.0000  <S**2>=2.000
       1 -> 54         0.67499
       1 -> 55         0.17195
 
 Excited state symmetry could not be determined.
 Excited State  54:      Triplet-?Sym   34.9441 eV   35.48 nm  f=0.0000  <S**2>=2.000
       1 -> 54        -0.17195
       1 -> 55         0.67499
 
 Excited State  55:      Triplet-SGU   37.5854 eV   32.99 nm  f=0.0000  <S**2>=2.000
       1 -> 56         0.69802
 
 Excited state symmetry could not be determined.
 Excited State  56:      Triplet-?Sym   37.9512 eV   32.67 nm  f=0.0000  <S**2>=2.000
       1 -> 57         0.70577
 
 Excited state symmetry could not be determined.
 Excited State  57:      Triplet-?Sym   37.9512 eV   32.67 nm  f=0.0000  <S**2>=2.000
       1 -> 58         0.70577
 
 Excited state symmetry could not be determined.
 Excited State  58:      Triplet-?Sym   38.0111 eV   32.62 nm  f=0.0000  <S**2>=2.000
       1 -> 59        -0.34712
       1 -> 60         0.61430
 
 Excited state symmetry could not be determined.
 Excited State  59:      Triplet-?Sym   38.0111 eV   32.62 nm  f=0.0000  <S**2>=2.000
       1 -> 59         0.61430
       1 -> 60         0.34712
 
 Excited State  60:      Triplet-SGG   45.4696 eV   27.27 nm  f=0.0000  <S**2>=2.000
       1 -> 48         0.11245
       1 -> 61         0.69545
 
 Excited state symmetry could not be determined.
 Excited State  61:      Triplet-?Sym   51.9762 eV   23.85 nm  f=0.0000  <S**2>=2.000
       1 -> 62         0.64564
       1 -> 63         0.27495
 
 Excited state symmetry could not be determined.
 Excited State  62:      Triplet-?Sym   51.9762 eV   23.85 nm  f=0.0000  <S**2>=2.000
       1 -> 62        -0.27495
       1 -> 63         0.64564
 
 Excited State  63:      Triplet-SGU   63.9843 eV   19.38 nm  f=0.0000  <S**2>=2.000
       1 -> 64         0.70165
 
 Excited State  64:      Triplet-SGG   79.5318 eV   15.59 nm  f=0.0000  <S**2>=2.000
       1 -> 65         0.70601
 
 Excited State  65:      Triplet-SGU   92.6892 eV   13.38 nm  f=0.0000  <S**2>=2.000
       1 -> 66         0.70595
 
 Excited state symmetry could not be determined.
 Excited State  66:      Triplet-?Sym   96.1104 eV   12.90 nm  f=0.0000  <S**2>=2.000
       1 -> 67         0.68794
       1 -> 68        -0.15985
 
 Excited state symmetry could not be determined.
 Excited State  67:      Triplet-?Sym   96.1104 eV   12.90 nm  f=0.0000  <S**2>=2.000
       1 -> 67         0.15985
       1 -> 68         0.68794
 
 Excited state symmetry could not be determined.
 Excited State  68:      Triplet-?Sym  103.0943 eV   12.03 nm  f=0.0000  <S**2>=2.000
       1 -> 69         0.70686
 
 Excited state symmetry could not be determined.
 Excited State  69:      Triplet-?Sym  103.0943 eV   12.03 nm  f=0.0000  <S**2>=2.000
       1 -> 70         0.70686
 
 Excited State  70:      Triplet-SGG  103.9038 eV   11.93 nm  f=0.0000  <S**2>=2.000
[...]
     1      1    26      6   -0.209019
     1      1    30      6    0.170858
 Beta  Singles Amplitudes
     I    SymI    A    SymA    Value
     1      1     3      6    0.232343
     1      1     4      6    0.467354
     1      1    11      6   -0.361183
     1      1    26      6    0.209019
     1      1    30      6   -0.170858

 ----------------------------------------------
 Excited State   6:      Triplet-AG    12.9412 eV   95.81 nm  f=0.0000
 Right Eigenvector 
 Alpha Singles Amplitudes
     I    SymI    A    SymA    Value
     1      1     2      1   -0.540027
     1      1     5      1   -0.182200
     1      1    10      1    0.119944
     1      1    12      1    0.303303
     1      1    20      1   -0.134222
     1      1    29      1   -0.169838
 Beta  Singles Amplitudes
     I    SymI    A    SymA    Value
     1      1     2      1    0.540027
     1      1     5      1    0.182200
     1      1    10      1   -0.119944
     1      1    12      1   -0.303303
     1      1    20      1    0.134222
     1      1    29      1    0.169838
 Left  Eigenvector 
 Alpha Singles Amplitudes
     I    SymI    A    SymA    Value
     1      1     2      1   -0.537850
     1      1     5      1   -0.180525
     1      1    10      1    0.127846
     1      1    12      1    0.301697
     1      1    20      1   -0.139457
     1      1    29      1   -0.168295
 Beta  Singles Amplitudes
     I    SymI    A    SymA    Value
     1      1     2      1    0.537850
     1      1     5      1    0.180525
     1      1    10      1   -0.127846
     1      1    12      1   -0.301697
     1      1    20      1    0.139457
     1      1    29      1    0.168295

 ----------------------------------------------
 Excited State   7:      Triplet-AG    12.9590 eV   95.67 nm  f=0.0000
 Right Eigenvector 
 Alpha Singles Amplitudes
     I    SymI    A    SymA    Value
     1      1     2      1   -0.118620
     1      1     5      1   -0.102841
     1      1    10      1   -0.555419
     1      1    20      1    0.357912
 Beta  Singles Amplitudes
     I    SymI    A    SymA    Value
     1      1     2      1    0.118620
     1      1     5      1    0.102841
     1      1    10      1    0.555419
     1      1    20      1   -0.357912
 Left  Eigenvector 
 Alpha Singles Amplitudes
     I    SymI    A    SymA    Value
     1      1     2      1   -0.110581
     1      1     5      1   -0.100345
     1      1    10      1   -0.556654
     1      1    20      1    0.359537
 Beta  Singles Amplitudes
     I    SymI    A    SymA    Value
     1      1     2      1    0.110581
     1      1     5      1    0.100345
     1      1    10      1    0.556654
     1      1    20      1   -0.359537

 ----------------------------------------------
 Excited State   8:      Triplet-B2U   12.9666 eV   95.62 nm  f=0.0000
 Right Eigenvector 
 Alpha Singles Amplitudes
     I    SymI    A    SymA    Value
     1      1     7      7    0.605825
     1      1    19      7   -0.230919
     1      1    25      7    0.113611
     1      1    31      7   -0.223907
 Beta  Singles Amplitudes
     I    SymI    A    SymA    Value
     1      1     7      7   -0.605825
     1      1    19      7    0.230919
     1      1    25      7   -0.113611
     1      1    31      7    0.223907
 Left  Eigenvector 
 Alpha Singles Amplitudes
     I    SymI    A    SymA    Value
     1      1     7      7    0.605229
     1      1    19      7   -0.230684
     1      1    25      7    0.113473
     1      1    31      7   -0.223675
 Beta  Singles Amplitudes
     I    SymI    A    SymA    Value
     1      1     7      7   -0.605229
     1      1    19      7    0.230684
     1      1    25      7   -0.113473
     1      1    31      7    0.223675

 ----------------------------------------------
 Excited State   9:      Triplet-B3U   12.9666 eV   95.62 nm  f=0.0000
 Right Eigenvector 
 Alpha Singles Amplitudes
     I    SymI    A    SymA    Value
     1      1     6      8    0.605825
     1      1    18      8   -0.230919
     1      1    24      8    0.113611
     1      1    32      8   -0.223907
 Beta  Singles Amplitudes
     I    SymI    A    SymA    Value
     1      1     6      8   -0.605825
     1      1    18      8    0.230919
     1      1    24      8   -0.113611
     1      1    32      8    0.223907
 Left  Eigenvector 
 Alpha Singles Amplitudes
     I    SymI    A    SymA    Value
     1      1     6      8    0.605229
     1      1    18      8   -0.230684
     1      1    24      8    0.113473
     1      1    32      8   -0.223675
 Beta  Singles Amplitudes
     I    SymI    A    SymA    Value
     1      1     6      8   -0.605229
     1      1    18      8    0.230684
     1      1    24      8   -0.113473
     1      1    32      8    0.223675

 ----------------------------------------------
 Excited State  10:      Triplet-B3G   12.9726 eV   95.57 nm  f=0.0000
 Right Eigenvector 
 Alpha Singles Amplitudes
     I    SymI    A    SymA    Value
     1      1     9      4    0.562464
     1      1    17      4   -0.377862
     1      1    27      4    0.152489
 Beta  Singles Amplitudes
     I    SymI    A    SymA    Value
     1      1     9      4   -0.562464
     1      1    17      4    0.377862
     1      1    27      4   -0.152489
 Left  Eigenvector 
 Alpha Singles Amplitudes
     I    SymI    A    SymA    Value
     1      1     9      4    0.561873
     1      1    17      4   -0.377474
     1      1    27      4    0.152320
 Beta  Singles Amplitudes
     I    SymI    A    SymA    Value
     1      1     9      4   -0.561873
     1      1    17      4    0.377474
     1      1    27      4   -0.152320

 ----------------------------------------------
 Excited State  11:      Triplet-B2G   12.9726 eV   95.57 nm  f=0.0000
 Right Eigenvector 
 Alpha Singles Amplitudes
     I    SymI    A    SymA    Value
     1      1     8      3    0.562464
     1      1    16      3   -0.377862
     1      1    28      3    0.152489
 Beta  Singles Amplitudes
     I    SymI    A    SymA    Value
     1      1     8      3   -0.562464
     1      1    16      3    0.377862
     1      1    28      3   -0.152489
 Left  Eigenvector 
 Alpha Singles Amplitudes
     I    SymI    A    SymA    Value
     1      1     8      3    0.561873
     1      1    16      3   -0.377474
     1      1    28      3    0.152320
 Beta  Singles Amplitudes
     I    SymI    A    SymA    Value
     1      1     8      3   -0.561873
     1      1    16      3    0.377474
     1      1    28      3   -0.152320

 ----------------------------------------------
 Excited State  12:      Triplet-AG    13.2961 eV   93.25 nm  f=0.0000
 Right Eigenvector 
 Alpha Singles Amplitudes
     I    SymI    A    SymA    Value
     1      1    14      1    0.682759
     1      1    33      1    0.139834
 Beta  Singles Amplitudes
     I    SymI    A    SymA    Value
     1      1    14      1   -0.682759
     1      1    33      1   -0.139834
 Left  Eigenvector 
 Alpha Singles Amplitudes
     I    SymI    A    SymA    Value
     1      1    14      1    0.682041
     1      1    33      1    0.139678
 Beta  Singles Amplitudes
     I    SymI    A    SymA    Value
     1      1    14      1   -0.682041
     1      1    33      1   -0.139678
 Ground to excited state transition densities written to RWF  633
 SavETr:  write IOETrn=   770 NScale= 10 NData=  16 NLR=2 NState=   12 LETran=     418.
 Discarding MO integrals.
 Leave Link  913 at Mon Jun 10 14:09:26 2024, MaxMem=   536870912 cpu:              24.0 elap:              23.8
 (Enter C:\G16W\l601.exe)
 Copying SCF densities to generalized density rwf, IOpCl= 0 IROHF=0.

 **********************************************************************

            Population analysis using the SCF Density.

 **********************************************************************

 Orbital symmetries:
       Occupied  (SGG)
       Virtual   (SGG) (SGU) (SGU) (SGG) (PIU) (PIU) (PIG) (PIG)
                 (SGG) (SGU) (SGG) (SGU) (DLTG) (DLTG) (PIG) (PIG)
                 (PIU) (PIU) (SGG) (SGU) (DLTU) (DLTU) (PIU) (PIU)
                 (SGU) (PIG) (PIG) (SGG) (SGU) (PIU) (PIU) (DLTG)
                 (DLTG) (SGG) (SGU) (PIG) (PIG) (DLTU) (DLTU) (PIU)
                 (PIU) (SGG) (SGU) (PIG) (PIG) (SGG) (SGG) (DLTG)
                 (DLTG) (SGU) (PIU) (PIU) (PIG) (PIG) (SGU) (DLTU)
                 (DLTU) (PIU) (PIU) (SGG) (PIG) (PIG) (SGU) (SGG)
                 (SGU) (PIU) (PIU) (DLTG) (DLTG) (SGG) (DLTU) (DLTU)
                 (PIU) (PIU) (PIG) (PIG) (SGU) (PIG) (PIG) (SGG)
                 (SGU)
 The electronic state is 1-SGG.
 Alpha  occ. eigenvalues --   -0.52513
 Alpha virt. eigenvalues --    0.00406   0.00564   0.01978   0.02207   0.02526
 Alpha virt. eigenvalues --    0.02526   0.03234   0.03234   0.03431   0.04577
 Alpha virt. eigenvalues --    0.07931   0.08789   0.08943   0.08943   0.09443
 Alpha virt. eigenvalues --    0.09443   0.09849   0.09849   0.11084   0.11577
 Alpha virt. eigenvalues --    0.11707   0.11707   0.12004   0.12004   0.15773
 Alpha virt. eigenvalues --    0.20269   0.20269   0.21384   0.28949   0.30583
 Alpha virt. eigenvalues --    0.30583   0.32515   0.32515   0.32783   0.37895
 Alpha virt. eigenvalues --    0.38290   0.38290   0.39931   0.39931   0.40141
 Alpha virt. eigenvalues --    0.40141   0.48611   0.56322   0.61935   0.61935
 Alpha virt. eigenvalues --    0.79737   0.98296   1.00070   1.00070   1.00551
 Alpha virt. eigenvalues --    1.01838   1.01838   1.07386   1.07386   1.16953
 Alpha virt. eigenvalues --    1.20524   1.20524   1.21772   1.21772   1.57045
 Alpha virt. eigenvalues --    1.81054   1.81054   2.26853   2.97804   3.43745
 Alpha virt. eigenvalues --    3.61761   3.61761   3.82252   3.82252   3.91322
 Alpha virt. eigenvalues --    4.25357   4.25357   4.30358   4.30358   4.47804
 Alpha virt. eigenvalues --    4.47804   4.82203   5.09283   5.09283   5.10719
 Alpha virt. eigenvalues --    6.66298
          Condensed to atoms (all electrons):
               1          2
     1  H    0.589514   0.410486
     2  H    0.410486   0.589514
 Mulliken charges:
               1
     1  H    0.000000
     2  H    0.000000
 Sum of Mulliken charges =   0.00000
 Mulliken charges with hydrogens summed into heavy atoms:
               1
 Electronic spatial extent (au):  <R**2>=              6.5668
 Charge=              0.0000 electrons
 Dipole moment (field-independent basis, Debye):
    X=              0.0000    Y=              0.0000    Z=              0.0000  Tot=              0.0000
 Quadrupole moment (field-independent basis, Debye-Ang):
   XX=             -2.5068   YY=             -2.5068   ZZ=             -1.3934
   XY=              0.0000   XZ=              0.0000   YZ=              0.0000
 Traceless Quadrupole moment (field-independent basis, Debye-Ang):
   XX=             -0.3711   YY=             -0.3711   ZZ=              0.7423
   XY=              0.0000   XZ=              0.0000   YZ=              0.0000
 Octapole moment (field-independent basis, Debye-Ang**2):
  XXX=              0.0000  YYY=              0.0000  ZZZ=              0.0000  XYY=              0.0000
  XXY=              0.0000  XXZ=              0.0000  XZZ=              0.0000  YZZ=              0.0000
  YYZ=              0.0000  XYZ=              0.0000
 Hexadecapole moment (field-independent basis, Debye-Ang**3):
 XXXX=             -2.9614 YYYY=             -2.9614 ZZZZ=             -4.3884 XXXY=              0.0000
 XXXZ=              0.0000 YYYX=              0.0000 YYYZ=              0.0000 ZZZX=              0.0000
 ZZZY=              0.0000 XXYY=             -0.9871 XXZZ=             -1.2745 YYZZ=             -1.2745
 XXYZ=              0.0000 YYXZ=              0.0000 ZZXY=              0.0000
 N-N= 5.265444884776D-01 E-N=-3.120830953404D+00  KE= 9.154281240959D-01
 Symmetry AG   KE= 9.154281240958D-01
 Symmetry B1G  KE= 4.808651991512D-54
 Symmetry B2G  KE= 1.721167692955D-31
 Symmetry B3G  KE= 1.721167692954D-31
 Symmetry AU   KE= 1.076115054312D-66
 Symmetry B1U  KE= 4.621391900387D-23
 Symmetry B2U  KE= 1.074354427464D-34
 Symmetry B3U  KE= 1.074354427464D-34
 Leave Link  601 at Mon Jun 10 14:09:26 2024, MaxMem=   536870912 cpu:               0.0 elap:               0.4
 (Enter C:\G16W\l9999.exe)
 Electronic transition elements 
                 1             2             3             4             5 
      1  -0.886765D+00 -0.737031D+00 -0.737031D+00 -0.736882D+00 -0.681528D+00
      2   0.000000D+00  0.000000D+00  0.000000D+00  0.000000D+00  0.000000D+00
      3   0.000000D+00  0.000000D+00  0.000000D+00  0.000000D+00  0.000000D+00
      4   0.000000D+00  0.000000D+00  0.000000D+00  0.000000D+00  0.000000D+00
      5   0.000000D+00  0.000000D+00  0.000000D+00  0.000000D+00  0.000000D+00
      6   0.000000D+00  0.000000D+00  0.000000D+00  0.000000D+00  0.000000D+00
      7   0.000000D+00  0.000000D+00  0.000000D+00  0.000000D+00  0.000000D+00
      8   0.000000D+00  0.000000D+00  0.000000D+00  0.000000D+00  0.000000D+00
      9   0.000000D+00  0.000000D+00  0.000000D+00  0.000000D+00  0.000000D+00
     10   0.000000D+00  0.000000D+00  0.000000D+00  0.000000D+00  0.000000D+00
     11   0.000000D+00  0.000000D+00  0.000000D+00  0.000000D+00  0.000000D+00
     12   0.000000D+00  0.000000D+00  0.000000D+00  0.000000D+00  0.000000D+00
     13   0.000000D+00  0.000000D+00  0.000000D+00  0.000000D+00  0.000000D+00
     14   0.000000D+00  0.000000D+00  0.000000D+00  0.000000D+00  0.000000D+00
     15   0.000000D+00  0.000000D+00  0.000000D+00  0.000000D+00  0.000000D+00
     16   0.000000D+00  0.000000D+00  0.000000D+00  0.000000D+00  0.000000D+00
     17  -0.886765D+00 -0.737031D+00 -0.737031D+00 -0.736882D+00 -0.681528D+00
     18   0.000000D+00  0.000000D+00  0.000000D+00  0.000000D+00  0.000000D+00
     19   0.000000D+00  0.000000D+00  0.000000D+00  0.000000D+00  0.000000D+00
     20   0.000000D+00  0.000000D+00  0.000000D+00  0.000000D+00  0.000000D+00
     21   0.000000D+00  0.000000D+00  0.000000D+00  0.000000D+00  0.000000D+00
     22   0.000000D+00  0.000000D+00  0.000000D+00  0.000000D+00  0.000000D+00
     23   0.000000D+00  0.000000D+00  0.000000D+00  0.000000D+00  0.000000D+00
     24   0.000000D+00  0.000000D+00  0.000000D+00  0.000000D+00  0.000000D+00
     25   0.000000D+00  0.000000D+00  0.000000D+00  0.000000D+00  0.000000D+00
     26   0.000000D+00  0.000000D+00  0.000000D+00  0.000000D+00  0.000000D+00
     27   0.000000D+00  0.000000D+00  0.000000D+00  0.000000D+00  0.000000D+00
     28   0.000000D+00  0.000000D+00  0.000000D+00  0.000000D+00  0.000000D+00
     29   0.000000D+00  0.000000D+00  0.000000D+00  0.000000D+00  0.000000D+00
     30   0.000000D+00  0.000000D+00  0.000000D+00  0.000000D+00  0.000000D+00
     31   0.000000D+00  0.000000D+00  0.000000D+00  0.000000D+00  0.000000D+00
     32   0.000000D+00  0.000000D+00  0.000000D+00  0.000000D+00  0.000000D+00
                 6             7             8             9            10 
      1  -0.659491D+00 -0.658837D+00 -0.658560D+00 -0.658560D+00 -0.658338D+00
      2   0.000000D+00  0.000000D+00  0.000000D+00  0.000000D+00  0.000000D+00
      3   0.000000D+00  0.000000D+00  0.000000D+00  0.000000D+00  0.000000D+00
      4   0.000000D+00  0.000000D+00  0.000000D+00  0.000000D+00  0.000000D+00
      5   0.000000D+00  0.000000D+00  0.000000D+00  0.000000D+00  0.000000D+00
      6   0.000000D+00  0.000000D+00  0.000000D+00  0.000000D+00  0.000000D+00
      7   0.000000D+00  0.000000D+00  0.000000D+00  0.000000D+00  0.000000D+00
      8   0.000000D+00  0.000000D+00  0.000000D+00  0.000000D+00  0.000000D+00
      9   0.000000D+00  0.000000D+00  0.000000D+00  0.000000D+00  0.000000D+00
     10   0.000000D+00  0.000000D+00  0.000000D+00  0.000000D+00  0.000000D+00
     11   0.000000D+00  0.000000D+00  0.000000D+00  0.000000D+00  0.000000D+00
     12   0.000000D+00  0.000000D+00  0.000000D+00  0.000000D+00  0.000000D+00
     13   0.000000D+00  0.000000D+00  0.000000D+00  0.000000D+00  0.000000D+00
     14   0.000000D+00  0.000000D+00  0.000000D+00  0.000000D+00  0.000000D+00
     15   0.000000D+00  0.000000D+00  0.000000D+00  0.000000D+00  0.000000D+00
     16   0.000000D+00  0.000000D+00  0.000000D+00  0.000000D+00  0.000000D+00
     17  -0.659491D+00 -0.658837D+00 -0.658560D+00 -0.658560D+00 -0.658338D+00
     18   0.000000D+00  0.000000D+00  0.000000D+00  0.000000D+00  0.000000D+00
     19   0.000000D+00  0.000000D+00  0.000000D+00  0.000000D+00  0.000000D+00
     20   0.000000D+00  0.000000D+00  0.000000D+00  0.000000D+00  0.000000D+00
     21   0.000000D+00  0.000000D+00  0.000000D+00  0.000000D+00  0.000000D+00
     22   0.000000D+00  0.000000D+00  0.000000D+00  0.000000D+00  0.000000D+00
     23   0.000000D+00  0.000000D+00  0.000000D+00  0.000000D+00  0.000000D+00
     24   0.000000D+00  0.000000D+00  0.000000D+00  0.000000D+00  0.000000D+00
     25   0.000000D+00  0.000000D+00  0.000000D+00  0.000000D+00  0.000000D+00
     26   0.000000D+00  0.000000D+00  0.000000D+00  0.000000D+00  0.000000D+00
     27   0.000000D+00  0.000000D+00  0.000000D+00  0.000000D+00  0.000000D+00
     28   0.000000D+00  0.000000D+00  0.000000D+00  0.000000D+00  0.000000D+00
     29   0.000000D+00  0.000000D+00  0.000000D+00  0.000000D+00  0.000000D+00
     30   0.000000D+00  0.000000D+00  0.000000D+00  0.000000D+00  0.000000D+00
     31   0.000000D+00  0.000000D+00  0.000000D+00  0.000000D+00  0.000000D+00
     32   0.000000D+00  0.000000D+00  0.000000D+00  0.000000D+00  0.000000D+00
                11            12 
      1  -0.658338D+00 -0.646450D+00
      2   0.000000D+00  0.000000D+00
      3   0.000000D+00  0.000000D+00
      4   0.000000D+00  0.000000D+00
      5   0.000000D+00  0.000000D+00
      6   0.000000D+00  0.000000D+00
      7   0.000000D+00  0.000000D+00
      8   0.000000D+00  0.000000D+00
      9   0.000000D+00  0.000000D+00
     10   0.000000D+00  0.000000D+00
     11   0.000000D+00  0.000000D+00
     12   0.000000D+00  0.000000D+00
     13   0.000000D+00  0.000000D+00
     14   0.000000D+00  0.000000D+00
     15   0.000000D+00  0.000000D+00
     16   0.000000D+00  0.000000D+00
     17  -0.658338D+00 -0.646450D+00
     18   0.000000D+00  0.000000D+00
     19   0.000000D+00  0.000000D+00
     20   0.000000D+00  0.000000D+00
     21   0.000000D+00  0.000000D+00
     22   0.000000D+00  0.000000D+00
     23   0.000000D+00  0.000000D+00
     24   0.000000D+00  0.000000D+00
     25   0.000000D+00  0.000000D+00
     26   0.000000D+00  0.000000D+00
     27   0.000000D+00  0.000000D+00
     28   0.000000D+00  0.000000D+00
     29   0.000000D+00  0.000000D+00
     30   0.000000D+00  0.000000D+00
     31   0.000000D+00  0.000000D+00
     32   0.000000D+00  0.000000D+00

 Test job not archived.
 1|1|UNPC-INOHAAN|SP|REOMCCSD-FC|TAug-CC-pVTZ|H2|SATO4|10-Jun-2024|0||#
 p EOMCCSD(NStates=12,root=1,triplets)/taug-cc-pvtz int=(ultrafine) IOp
 (9/6=5000000) IOp(9/19=1)||Title Card Required||0,1|H,0,0.,0.,0.5025|H
 ,0,0.,0.,-0.5025||Version=EM64W-G16RevB.01|State=1-SGG|HF=-1.1012844|M
 P2=-1.135073|MP3=-1.1418444|RMSD=5.759e-009|PG=D*H [C*(H1.H1)]||@



 WE LOSE BECAUSE WE WIN

 GAMBLERS,

 RECOLLECTING WHICH,

 TOSS THEIR DICE AGAIN....


                          EMILY DICKINSON  BOLTS OF MELODY NO. 533
 Job cpu time:       0 days  0 hours  0 minutes 41.0 seconds.
 Elapsed time:       0 days  0 hours  0 minutes 37.0 seconds.
 File lengths (MBytes):  RWF=     34 Int=      0 D2E=      0 Chk=      5 Scr=      1
 Normal termination of Gaussian 16 at Mon Jun 10 14:09:27 2024.
