 Entering Link 1 = C:\G16W\l1.exe PID=       688.
  
 Copyright (c) 1988-2017, Gaussian, Inc.  All Rights Reserved.
  
 This is part of the Gaussian(R) 16 program.  It is based on
 the Gaussian(R) 09 system (copyright 2009, Gaussian, Inc.),
 the Gaussian(R) 03 system (copyright 2003, Gaussian, Inc.),
 the Gaussian(R) 98 system (copyright 1998, Gaussian, Inc.),
 the Gaussian(R) 94 system (copyright 1995, Gaussian, Inc.),
 the Gaussian 92(TM) system (copyright 1992, Gaussian, Inc.),
 the Gaussian 90(TM) system (copyright 1990, Gaussian, Inc.),
 the Gaussian 88(TM) system (copyright 1988, Gaussian, Inc.),
 the Gaussian 86(TM) system (copyright 1986, Carnegie Mellon
 University), and the Gaussian 82(TM) system (copyright 1983,
 Carnegie Mellon University). Gaussian is a federally registered
 trademark of Gaussian, Inc.
  
 This software contains proprietary and confidential information,
 including trade secrets, belonging to Gaussian, Inc.
  
 This software is provided under written license and may be
 used, copied, transmitted, or stored only in accord with that
 written license.
  
 The following legend is applicable only to US Government
 contracts under FAR:
  
                    RESTRICTED RIGHTS LEGEND
  
 Use, reproduction and disclosure by the US Government is
 subject to restrictions as set forth in subparagraphs (a)
 and (c) of the Commercial Computer Software - Restricted
 Rights clause in FAR 52.227-19.
  
 Gaussian, Inc.
 340 Quinnipiac St., Bldg. 40, Wallingford CT 06492
  
  
 ---------------------------------------------------------------
 Warning -- This program may not be used in any manner that
 competes with the business of Gaussian, Inc. or will provide
 assistance to any competitor of Gaussian, Inc.  The licensee
 of this program is prohibited from giving any competitor of
 Gaussian, Inc. access to this program.  By using this program,
 the user acknowledges that Gaussian, Inc. is engaged in the
 business of creating and licensing software in the field of
 computational chemistry and represents and warrants to the
 licensee that it is not a competitor of Gaussian, Inc. and that
 it will not use this program in any manner prohibited above.
 ---------------------------------------------------------------
  

 Cite this work as:
 Gaussian 16, Revision B.01,
 M. J. Frisch, G. W. Trucks, H. B. Schlegel, G. E. Scuseria, 
 M. A. Robb, J. R. Cheeseman, G. Scalmani, V. Barone, 
 G. A. Petersson, H. Nakatsuji, X. Li, M. Caricato, A. V. Marenich, 
 J. Bloino, B. G. Janesko, R. Gomperts, B. Mennucci, H. P. Hratchian, 
 J. V. Ortiz, A. F. Izmaylov, J. L. Sonnenberg, D. Williams-Young, 
 F. Ding, F. Lipparini, F. Egidi, J. Goings, B. Peng, A. Petrone, 
 T. Henderson, D. Ranasinghe, V. G. Zakrzewski, J. Gao, N. Rega, 
 G. Zheng, W. Liang, M. Hada, M. Ehara, K. Toyota, R. Fukuda, 
 J. Hasegawa, M. Ishida, T. Nakajima, Y. Honda, O. Kitao, H. Nakai, 
 T. Vreven, K. Throssell, J. A. Montgomery, Jr., J. E. Peralta, 
 F. Ogliaro, M. J. Bearpark, J. J. Heyd, E. N. Brothers, K. N. Kudin, 
 V. N. Staroverov, T. A. Keith, R. Kobayashi, J. Normand, 
 K. Raghavachari, A. P. Rendell, J. C. Burant, S. S. Iyengar, 
 J. Tomasi, M. Cossi, J. M. Millam, M. Klene, C. Adamo, R. Cammi, 
 J. W. Ochterski, R. L. Martin, K. Morokuma, O. Farkas, 
 J. B. Foresman, and D. J. Fox, Gaussian, Inc., Wallingford CT, 2016.
 
 ******************************************
 Gaussian 16:  EM64W-G16RevB.01 16-Dec-2017
                10-Jun-2024 
 ******************************************
 %nprocshared=4
 Will use up to    4 processors via shared memory.
 %mem=4gb
 %chk=C:\Users\sato4\Documents\UTokyo\EEIC-Exp\E1\input\He_singlet.chk
 ----------------------------------------------------------------------
 #p EOMCCSD(NStates=26,root=1)/gen int=(ultrafine) IOp(9/6=5000000) IOp
 (9/19=1)
 ----------------------------------------------------------------------
 1/38=1,172=1/1;
 2/12=2,17=6,18=5,40=1/2;
 3/5=7,11=9,25=1,30=1,75=-5/1,2,3,8;
 4//1;
 5/5=2,38=5/2;
 8/6=1,10=1,68=101,107=1,108=26/1;
 9/6=5000000,8=1,19=1,41=26,42=1,68=1/14;
 8/6=4,9=120000,10=92,68=1,107=1,108=26/1,4;
 9/5=7,6=5000000,19=1,41=26,68=1/13;
 6/7=2,8=2,9=2,10=2/1;
 99/5=1,9=1/99;
 Leave Link    1 at Mon Jun 10 13:55:31 2024, MaxMem=   536870912 cpu:               0.0 elap:               0.1
 (Enter C:\G16W\l101.exe)
 -------------------
 Title Card Required
 -------------------
 Symbolic Z-matrix:
 Charge =  0 Multiplicity = 1
 He                    0.        0.        0. 
 
 ITRead=  0
 MicOpt= -1
 NAtoms=      1 NQM=        1 NQMF=       0 NMMI=      0 NMMIF=      0
                NMic=       0 NMicF=      0.
                    Isotopes and Nuclear Properties:
 (Nuclear quadrupole moments (NQMom) in fm**2, nuclear magnetic moments (NMagM)
  in nuclear magnetons)

  Atom         1
 IAtWgt=           4
 AtmWgt=   4.0026033
 NucSpn=           0
 AtZEff=   0.0000000
 NQMom=    0.0000000
 NMagM=    0.0000000
 AtZNuc=   2.0000000
 Leave Link  101 at Mon Jun 10 13:55:31 2024, MaxMem=   536870912 cpu:               0.0 elap:               0.2
 (Enter C:\G16W\l202.exe)
                          Input orientation:                          
 ---------------------------------------------------------------------
 Center     Atomic      Atomic             Coordinates (Angstroms)
 Number     Number       Type             X           Y           Z
 ---------------------------------------------------------------------
      1          2           0        0.000000    0.000000    0.000000
 ---------------------------------------------------------------------
 Stoichiometry    He
 Framework group  OH[O(He)]
 Deg. of freedom     0
 Full point group                 OH      NOp  48
 Largest Abelian subgroup         D2H     NOp   8
 Largest concise Abelian subgroup C1      NOp   1
                         Standard orientation:                         
 ---------------------------------------------------------------------
 Center     Atomic      Atomic             Coordinates (Angstroms)
 Number     Number       Type             X           Y           Z
 ---------------------------------------------------------------------
      1          2           0        0.000000    0.000000    0.000000
 ---------------------------------------------------------------------
 Leave Link  202 at Mon Jun 10 13:55:32 2024, MaxMem=   536870912 cpu:               0.0 elap:               0.1
 (Enter C:\G16W\l301.exe)
 General basis read from cards:  (5D, 7F)
 Centers:       1
 S 1 1.00
     Exponent=  5.4370000000D+00 Coefficients=  1.0000000000D+00
 S 1 1.00
     Exponent=  2.0880000000D+00 Coefficients=  1.0000000000D+00
 S 1 1.00
     Exponent=  8.2970000000D-01 Coefficients=  1.0000000000D+00
 S 10 1.00
     Exponent=  4.7850000000D+03 Coefficients=  6.0000000000D-07
     Exponent=  7.1700000000D+02 Coefficients=  4.7000000000D-06
     Exponent=  1.6320000000D+02 Coefficients=  2.4400000000D-05
     Exponent=  4.6260000000D+01 Coefficients=  1.0120000000D-04
     Exponent=  1.5100000000D+01 Coefficients=  3.4860000000D-04
     Exponent=  5.4370000000D+00 Coefficients=  9.8410000000D-04
     Exponent=  2.0880000000D+00 Coefficients=  2.1631000000D-03
     Exponent=  8.2970000000D-01 Coefficients=  3.4905000000D-03
     Exponent=  3.3660000000D-01 Coefficients=  3.4660000000D-03
     Exponent=  1.3690000000D-01 Coefficients=  1.1519000000D-03
 S 1 1.00
     Exponent=  3.3660000000D-01 Coefficients=  1.0000000000D+00
 S 1 1.00
     Exponent=  1.3690000000D-01 Coefficients=  1.0000000000D+00
 S 1 1.00
     Exponent=  4.4730000000D-02 Coefficients=  1.0000000000D+00
 S 1 1.00
     Exponent=  1.4910000000D-02 Coefficients=  1.0000000000D+00
 S 1 1.00
     Exponent=  4.9700000000D-03 Coefficients=  1.0000000000D+00
 S 1 1.00
     Exponent=  1.6600000000D-03 Coefficients=  1.0000000000D+00
 S 1 1.00
     Exponent=  5.3000000000D-04 Coefficients=  1.0000000000D+00
 P 1 1.00
     Exponent=  1.6104000000D+01 Coefficients=  1.0000000000D+00
 P 1 1.00
     Exponent=  6.3420000000D+00 Coefficients=  1.0000000000D+00
 P 1 1.00
     Exponent=  2.4980000000D+00 Coefficients=  1.0000000000D+00
 P 1 1.00
     Exponent=  9.8400000000D-01 Coefficients=  1.0000000000D+00
 P 1 1.00
     Exponent=  3.8700000000D-01 Coefficients=  1.0000000000D+00
 P 1 1.00
     Exponent=  1.2800000000D-01 Coefficients=  1.0000000000D+00
 P 1 1.00
     Exponent=  4.2700000000D-02 Coefficients=  1.0000000000D+00
 P 1 1.00
     Exponent=  1.4200000000D-02 Coefficients=  1.0000000000D+00
 P 1 1.00
     Exponent=  4.7000000000D-03 Coefficients=  1.0000000000D+00
 P 1 1.00
     Exponent=  1.6000000000D-03 Coefficients=  1.0000000000D+00
 D 1 1.00
     Exponent=  1.2498000000D+01 Coefficients=  1.0000000000D+00
 D 1 1.00
     Exponent=  4.8860000000D+00 Coefficients=  1.0000000000D+00
 D 1 1.00
     Exponent=  1.9100000000D+00 Coefficients=  1.0000000000D+00
 D 1 1.00
     Exponent=  7.4700000000D-01 Coefficients=  1.0000000000D+00
 D 1 1.00
     Exponent=  2.4100000000D-01 Coefficients=  1.0000000000D+00
 D 1 1.00
     Exponent=  8.0300000000D-02 Coefficients=  1.0000000000D+00
 D 1 1.00
     Exponent=  2.6700000000D-02 Coefficients=  1.0000000000D+00
 D 1 1.00
     Exponent=  8.9000000000D-03 Coefficients=  1.0000000000D+00
 D 1 1.00
     Exponent=  3.0000000000D-03 Coefficients=  1.0000000000D+00
 F 1 1.00
     Exponent=  9.2760000000D+00 Coefficients=  1.0000000000D+00
 F 1 1.00
     Exponent=  3.4620000000D+00 Coefficients=  1.0000000000D+00
 F 1 1.00
     Exponent=  1.2920000000D+00 Coefficients=  1.0000000000D+00
 F 1 1.00
     Exponent=  4.0700000000D-01 Coefficients=  1.0000000000D+00
 F 1 1.00
     Exponent=  1.3570000000D-01 Coefficients=  1.0000000000D+00
 F 1 1.00
     Exponent=  4.5200000000D-02 Coefficients=  1.0000000000D+00
 F 1 1.00
     Exponent=  1.5100000000D-02 Coefficients=  1.0000000000D+00
 F 1 1.00
     Exponent=  5.0000000000D-03 Coefficients=  1.0000000000D+00
 ****
 Ernie: Thresh=  0.10000D-02 Tol=  0.10000D-05 Strict=F.
 There are    38 symmetry adapted cartesian basis functions of AG  symmetry.
 There are     9 symmetry adapted cartesian basis functions of B1G symmetry.
 There are     9 symmetry adapted cartesian basis functions of B2G symmetry.
 There are     9 symmetry adapted cartesian basis functions of B3G symmetry.
 There are     8 symmetry adapted cartesian basis functions of AU  symmetry.
 There are    34 symmetry adapted cartesian basis functions of B1U symmetry.
 There are    34 symmetry adapted cartesian basis functions of B2U symmetry.
 There are    34 symmetry adapted cartesian basis functions of B3U symmetry.
 There are    29 symmetry adapted basis functions of AG  symmetry.
 There are     9 symmetry adapted basis functions of B1G symmetry.
 There are     9 symmetry adapted basis functions of B2G symmetry.
 There are     9 symmetry adapted basis functions of B3G symmetry.
 There are     8 symmetry adapted basis functions of AU  symmetry.
 There are    26 symmetry adapted basis functions of B1U symmetry.
 There are    26 symmetry adapted basis functions of B2U symmetry.
 There are    26 symmetry adapted basis functions of B3U symmetry.
   142 basis functions,   184 primitive gaussians,   175 cartesian basis functions
     1 alpha electrons        1 beta electrons
       nuclear repulsion energy         0.0000000000 Hartrees.
 IExCor=    0 DFT=F Ex=HF Corr=None ExCW=0 ScaHFX=  1.000000
 ScaDFX=  1.000000  1.000000  1.000000  1.000000 ScalE2=  1.000000  1.000000
 IRadAn=      5 IRanWt=     -1 IRanGd=            0 ICorTp=0 IEmpDi=  4
 NAtoms=    1 NActive=    1 NUniq=    1 SFac= 1.00D+00 NAtFMM=   60 NAOKFM=F Big=F
 Integral buffers will be    131072 words long.
 Raffenetti 1 integral format.
 Two-electron integral symmetry is turned on.
 Leave Link  301 at Mon Jun 10 13:55:32 2024, MaxMem=   536870912 cpu:               0.0 elap:               0.1
 (Enter C:\G16W\l302.exe)
 NPDir=0 NMtPBC=     1 NCelOv=     1 NCel=       1 NClECP=     1 NCelD=      1
         NCelK=      1 NCelE2=     1 NClLst=     1 CellRange=     0.0.
 One-electron integrals computed using PRISM.
 One-electron integral symmetry used in STVInt
 NBasis=   142 RedAO= T EigKep=  3.87D-04  NBF=    29     9     9     9     8    26    26    26
 NBsUse=   142 1.00D-06 EigRej= -1.00D+00 NBFU=    29     9     9     9     8    26    26    26
 Leave Link  302 at Mon Jun 10 13:55:33 2024, MaxMem=   536870912 cpu:               1.0 elap:               0.5
 (Enter C:\G16W\l303.exe)
 DipDrv:  MaxL=1.
 Leave Link  303 at Mon Jun 10 13:55:33 2024, MaxMem=   536870912 cpu:               0.0 elap:               0.2
 (Enter C:\G16W\l308.exe)
 Leave Link  308 at Mon Jun 10 13:55:33 2024, MaxMem=   536870912 cpu:               0.0 elap:               0.2
 (Enter C:\G16W\l401.exe)
 ExpMin= 5.30D-04 ExpMax= 4.79D+03 ExpMxC= 4.63D+01 IAcc=3 IRadAn=         5 AccDes= 0.00D+00
 Harris functional with IExCor=  205 and IRadAn=       5 diagonalized for initial guess.
 HarFok:  IExCor=  205 AccDes= 0.00D+00 IRadAn=         5 IDoV= 1 UseB2=F ITyADJ=14
 ICtDFT=  3500011 ScaDFX=  1.000000  1.000000  1.000000  1.000000
 FoFCou: FMM=F IPFlag=           0 FMFlag=      100000 FMFlg1=           0
         NFxFlg=           0 DoJE=T BraDBF=F KetDBF=T FulRan=T
         wScrn=  0.000000 ICntrl=       500 IOpCl=  0 I1Cent=   200000004 NGrid=           0
         NMat0=    1 NMatS0=      1 NMatT0=    0 NMatD0=    1 NMtDS0=    0 NMtDT0=    0
 Petite list used in FoFCou.
 Harris En= -2.87222838511563    
 JPrj=0 DoOrth=F DoCkMO=F.
 Initial guess orbital symmetries:
       Occupied  (A1G)
       Virtual   (A1G) (A1G) (T1U) (T1U) (T1U) (EG) (EG) (T2G)
                 (T2G) (T2G) (A1G) (T1U) (T1U) (T1U) (?A) (A2U)
                 (?A) (?A) (?A) (?A) (?A) (A1G) (T2G) (EG) (T2G)
                 (T2G) (EG) (T1U) (T1U) (T1U) (?A) (?A) (?A) (?A)
                 (A2U) (?A) (?A) (T1U) (T1U) (T1U) (T2G) (T2G)
                 (T2G) (EG) (EG) (A1G) (T2U) (T2U) (A2U) (T2U)
                 (T1U) (T1U) (T1U) (T2G) (T2G) (T2G) (EG) (EG)
                 (T1U) (T1U) (T1U) (A1G) (A2U) (T2U) (T2U) (T2U)
                 (T1U) (T1U) (T1U) (T2G) (T2G) (T2G) (EG) (EG)
                 (T1U) (T1U) (T1U) (A1G) (T2U) (T2U) (T2U) (A2U)
                 (T1U) (T1U) (T1U) (T2G) (T2G) (T2G) (EG) (EG)
                 (T1U) (T1U) (T1U) (A1G) (T2U) (T2U) (T2U) (A2U)
                 (T1U) (T1U) (T1U) (T2G) (T2G) (T2G) (EG) (EG)
                 (T1U) (T1U) (T1U) (A1G) (T2U) (T2U) (T2U) (A2U)
                 (T1U) (T1U) (T1U) (T2G) (T2G) (T2G) (EG) (EG)
                 (T1U) (T1U) (T1U) (T2U) (T2U) (T2U) (A2U) (T1U)
                 (T1U) (T1U) (A1G) (T2G) (T2G) (T2G) (EG) (EG)
                 (T1U) (T1U) (T1U)
 The electronic state of the initial guess is 1-A1G.
 Leave Link  401 at Mon Jun 10 13:55:35 2024, MaxMem=   536870912 cpu:               1.0 elap:               0.7
 (Enter C:\G16W\l502.exe)
 Keep R1 ints in memory in symmetry-blocked form, NReq=58170175.
 FoFCou: FMM=F IPFlag=           0 FMFlag=           0 FMFlg1=           0
         NFxFlg=           0 DoJE=F BraDBF=F KetDBF=F FulRan=T
         wScrn=  0.000000 ICntrl=       600 IOpCl=  0 I1Cent=           0 NGrid=           0
         NMat0=    1 NMatS0=  10153 NMatT0=    0 NMatD0=    1 NMtDS0=    0 NMtDT0=    0
 Petite list used in FoFCou.
 Closed shell SCF:
 Using DIIS extrapolation, IDIIS=  1040.
 NGot=   536870912 LenX=   530184563 LenY=   530153497
 Requested convergence on RMS density matrix=1.00D-08 within 128 cycles.
 Requested convergence on MAX density matrix=1.00D-06.
 Requested convergence on             energy=1.00D-06.
 No special actions if energy rises.

 Cycle   1  Pass 1  IDiag  1:
 E= -2.85874246043252    
 DIIS: error= 1.45D-02 at cycle   1 NSaved=   1.
 NSaved= 1 IEnMin= 1 EnMin= -2.85874246043252     IErMin= 1 ErrMin= 1.45D-02
 ErrMax= 1.45D-02  0.00D+00 EMaxC= 1.00D-01 BMatC= 2.43D-03 BMatP= 2.43D-03
 IDIUse=3 WtCom= 8.55D-01 WtEn= 1.45D-01
 Coeff-Com:  0.100D+01
 Coeff-En:   0.100D+01
 Coeff:      0.100D+01
 Gap=     0.935 Goal=   None    Shift=    0.000
 GapD=    0.935 DampG=2.000 DampE=0.500 DampFc=1.0000 IDamp=-1.
 RMSDP=3.81D-04 MaxDP=3.44D-02              OVMax= 2.99D-02

 Cycle   2  Pass 1  IDiag  1:
 E= -2.86158924226207     Delta-E=       -0.002846781830 Rises=F Damp=F
 DIIS: error= 2.16D-03 at cycle   2 NSaved=   2.
 NSaved= 2 IEnMin= 2 EnMin= -2.86158924226207     IErMin= 2 ErrMin= 2.16D-03
 ErrMax= 2.16D-03  0.00D+00 EMaxC= 1.00D-01 BMatC= 5.94D-05 BMatP= 2.43D-03
 IDIUse=3 WtCom= 9.78D-01 WtEn= 2.16D-02
 Coeff-Com: -0.125D+00 0.112D+01
 Coeff-En:   0.000D+00 0.100D+01
 Coeff:     -0.122D+00 0.112D+01
 Gap=     0.919 Goal=   None    Shift=    0.000
 RMSDP=9.09D-05 MaxDP=7.71D-03 DE=-2.85D-03 OVMax= 5.74D-03

 Cycle   3  Pass 1  IDiag  1:
 E= -2.86167212400282     Delta-E=       -0.000082881741 Rises=F Damp=F
 DIIS: error= 2.84D-04 at cycle   3 NSaved=   3.
 NSaved= 3 IEnMin= 3 EnMin= -2.86167212400282     IErMin= 3 ErrMin= 2.84D-04
 ErrMax= 2.84D-04  0.00D+00 EMaxC= 1.00D-01 BMatC= 7.70D-07 BMatP= 5.94D-05
 IDIUse=3 WtCom= 9.97D-01 WtEn= 2.84D-03
 Coeff-Com:  0.149D-01-0.183D+00 0.117D+01
 Coeff-En:   0.000D+00 0.000D+00 0.100D+01
 Coeff:      0.148D-01-0.182D+00 0.117D+01
 Gap=     0.919 Goal=   None    Shift=    0.000
 RMSDP=1.41D-05 MaxDP=9.77D-04 DE=-8.29D-05 OVMax= 7.12D-04

 Cycle   4  Pass 1  IDiag  1:
 E= -2.86167325272113     Delta-E=       -0.000001128718 Rises=F Damp=F
 DIIS: error= 1.15D-05 at cycle   4 NSaved=   4.
 NSaved= 4 IEnMin= 4 EnMin= -2.86167325272113     IErMin= 4 ErrMin= 1.15D-05
 ErrMax= 1.15D-05  0.00D+00 EMaxC= 1.00D-01 BMatC= 2.39D-09 BMatP= 7.70D-07
 IDIUse=1 WtCom= 1.00D+00 WtEn= 0.00D+00
 Coeff-Com: -0.146D-02 0.190D-01-0.158D+00 0.114D+01
 Coeff:     -0.146D-02 0.190D-01-0.158D+00 0.114D+01
 Gap=     0.919 Goal=   None    Shift=    0.000
 RMSDP=1.06D-06 MaxDP=7.92D-05 DE=-1.13D-06 OVMax= 4.63D-05

 Cycle   5  Pass 1  IDiag  1:
 E= -2.86167325696124     Delta-E=       -0.000000004240 Rises=F Damp=F
 DIIS: error= 4.24D-07 at cycle   5 NSaved=   5.
 NSaved= 5 IEnMin= 5 EnMin= -2.86167325696124     IErMin= 5 ErrMin= 4.24D-07
 ErrMax= 4.24D-07  0.00D+00 EMaxC= 1.00D-01 BMatC= 3.77D-12 BMatP= 2.39D-09
 IDIUse=1 WtCom= 1.00D+00 WtEn= 0.00D+00
 Coeff-Com:  0.118D-03-0.162D-02 0.148D-01-0.135D+00 0.112D+01
 Coeff:      0.118D-03-0.162D-02 0.148D-01-0.135D+00 0.112D+01
 Gap=     0.919 Goal=   None    Shift=    0.000
 RMSDP=4.60D-08 MaxDP=3.57D-06 DE=-4.24D-09 OVMax= 1.80D-06

 Cycle   6  Pass 1  IDiag  1:
 E= -2.86167325696756     Delta-E=       -0.000000000006 Rises=F Damp=F
 DIIS: error= 1.74D-08 at cycle   6 NSaved=   6.
 NSaved= 6 IEnMin= 6 EnMin= -2.86167325696756     IErMin= 6 ErrMin= 1.74D-08
 ErrMax= 1.74D-08  0.00D+00 EMaxC= 1.00D-01 BMatC= 4.75D-15 BMatP= 3.77D-12
 IDIUse=1 WtCom= 1.00D+00 WtEn= 0.00D+00
 Coeff-Com: -0.876D-05 0.128D-03-0.123D-02 0.120D-01-0.120D+00 0.111D+01
 Coeff:     -0.876D-05 0.128D-03-0.123D-02 0.120D-01-0.120D+00 0.111D+01
 Gap=     0.919 Goal=   None    Shift=    0.000
 RMSDP=3.01D-09 MaxDP=2.13D-07 DE=-6.33D-12 OVMax= 6.57D-08

 SCF Done:  E(RHF) =  -2.86167325697     A.U. after    6 cycles
            NFock=  6  Conv=0.30D-08     -V/T= 2.0000
 KE= 2.861660336957D+00 PE=-6.749099296023D+00 EE= 1.025765702098D+00
 Leave Link  502 at Mon Jun 10 13:55:38 2024, MaxMem=   536870912 cpu:               3.0 elap:               3.1
 (Enter C:\G16W\l801.exe)
 Range of M.O.s used for correlation:     1   142
 NBasis=   142 NAE=     1 NBE=     1 NFC=     0 NFV=     0
 NROrb=    142 NOA=     1 NOB=     1 NVA=   141 NVB=   141

 **** Warning!!: The largest alpha MO coefficient is  0.43953154D+02

 Leave Link  801 at Mon Jun 10 13:55:38 2024, MaxMem=   536870912 cpu:               0.0 elap:               0.1
 (Enter C:\G16W\l914.exe)
 RHF ground state
 Keep R1, R2, and R3 ints in memory in symmetry-blocked form, NReq=58170515.
 FoFCou: FMM=F IPFlag=           0 FMFlag=           0 FMFlg1=           0
         NFxFlg=           0 DoJE=F BraDBF=F KetDBF=F FulRan=T
         wScrn=  0.000000 ICntrl=       600 IOpCl=  0 I1Cent=           0 NGrid=           0
         NMat0=    1 NMatS0=  10153 NMatT0=    0 NMatD0=    1 NMtDS0=    0 NMtDT0=    0
 Petite list used in FoFCou.
 MDV=   536870912 DFT=F DoStab=F Mixed=F DoRPA=F DoScal=F NonHer=F
 Making orbital integer symmetry assigments:
 Orbital symmetries:
       Occupied  (A1G)
       Virtual   (A1G) (T1U) (T1U) (T1U) (A1G) (T2G) (T2G) (EG)
                 (T2G) (EG) (A1G) (T1U) (T1U) (T1U) (?A) (?A) (?A)
                 (A2U) (?A) (?A) (?A) (EG) (T2G) (T2G) (T2G) (EG)
                 (A1G) (T1U) (T1U) (T1U) (?A) (?A) (?A) (?A) (A2U)
                 (?A) (?A) (EG) (T2G) (T2G) (T2G) (EG) (T1U) (T1U)
                 (T1U) (A1G) (?A) (?A) (A2U) (?A) (?A) (?A) (?A)
                 (EG) (T2G) (T2G) (EG) (T2G) (T1U) (T1U) (T1U)
                 (A1G) (?A) (?A) (?A) (?A) (?A) (A2U) (?A) (T2G)
                 (T2G) (EG) (T2G) (EG) (T1U) (T1U) (T1U) (A1G)
                 (?A) (?A) (?A) (?A) (A2U) (?A) (?A) (EG) (T2G)
                 (T2G) (T2G) (EG) (T1U) (T1U) (T1U) (A1G) (?A)
                 (?A) (?A) (?A) (?A) (A2U) (?A) (T2G) (EG) (T2G)
                 (T2G) (EG) (T1U) (T1U) (T1U) (A1G) (?A) (?A) (?A)
                 (A2U) (?A) (?A) (?A) (EG) (EG) (T2G) (T2G) (T2G)
                 (T1U) (T1U) (T1U) (?A) (A2U) (?A) (?A) (?A) (?A)
                 (?A) (A1G) (EG) (EG) (T2G) (T2G) (T2G) (T1U) (T1U)
                 (T1U)
   141 initial guesses have been made.
 Convergence on wavefunction:    0.001000000000000
 Davidson Disk Diagonalization:  ConvIn= 1.00D-03 SkipCon=T Conv= 1.00D-03.
 Max sub-space:   564 roots to seek:   208 dimension of matrix:          282
 *** WARNING: Number of orthogonal guesses is          141
 Iteration     1 Dimension   141 NMult     0 NNew    141
 CISAX will form   141 AO SS matrices at one time.
 NMat=   141 NSing=   141 JSym2X= 2.
 New state      6 was old state     12
 New state      7 was old state     13
 New state      8 was old state     10
 New state      9 was old state     11
 New state     10 was old state      9
 New state     11 was old state      7
 New state     12 was old state      6
 New state     13 was old state      8
 New state     15 was old state     16
 New state     16 was old state     18
 New state     17 was old state     19
 New state     18 was old state     21
 New state     19 was old state     15
 New state     20 was old state     17
 New state     21 was old state     20
 New state     23 was old state     26
 New state     24 was old state     23
 New state     25 was old state     24
 New state     26 was old state     25
 New state     28 was old state     29
 New state     29 was old state     28
 New state     31 was old state     32
 New state     32 was old state     31
 New state     34 was old state     36
 New state     36 was old state     39
 New state     37 was old state     40
 New state     38 was old state     34
 New state     39 was old state     38
 New state     40 was old state     37
 New state     41 was old state     44
 New state     43 was old state     41
 New state     44 was old state     45
 New state     45 was old state     43
 New state     48 was old state     52
 New state     49 was old state     48
 New state     50 was old state     53
 New state     51 was old state     49
 New state     52 was old state     51
 New state     53 was old state     50
 New state     54 was old state     60
 New state     55 was old state     57
 New state     56 was old state     59
 New state     57 was old state     58
 New state     58 was old state     61
 New state     59 was old state     56
 New state     60 was old state     54
 New state     61 was old state     55
 New state     63 was old state     64
 New state     64 was old state     66
 New state     65 was old state     69
 New state     66 was old state     67
 New state     67 was old state     65
 New state     68 was old state     63
 New state     69 was old state     68
 New state     70 was old state     73
 New state     71 was old state     70
 New state     72 was old state     74
 New state     73 was old state     72
 New state     74 was old state     71
 New state     76 was old state     77
 New state     77 was old state     76
 New state     79 was old state     83
 New state     81 was old state     85
 New state     83 was old state     79
 New state     84 was old state     81
 New state     85 was old state     84
 New state     86 was old state     89
 New state     87 was old state     86
 New state     88 was old state     87
 New state     89 was old state     90
 New state     90 was old state     88
 New state     91 was old state     93
 New state     92 was old state     91
 New state     93 was old state     92
 New state     96 was old state     97
 New state     97 was old state     96
 New state     98 was old state     99
 New state     99 was old state     98
 New state    103 was old state    105
 New state    104 was old state    106
 New state    105 was old state    104
 New state    106 was old state    103
 New state    116 was old state    117
 New state    117 was old state    116
 New state    119 was old state    120
 New state    120 was old state    121
 New state    121 was old state    119
 New state    126 was old state    130
 New state    127 was old state    126
 New state    128 was old state    129
 New state    129 was old state    127
 New state    130 was old state    128
 New state    139 was old state    140
 New state    140 was old state    139
 Excitation Energies [eV] at current iteration:
 Root      1 :    21.130062323890150
 Root      2 :    21.694081282392540
 Root      3 :    21.694081282392790
 Root      4 :    21.694081282392830
 Root      5 :    23.347967379484440
 Root      6 :    23.469852541059230
 Root      7 :    23.469852541059310
 Root      8 :    23.469852541059430
 Root      9 :    23.469852541059440
 Root     10 :    23.469852541059450
 Root     11 :    23.508917568672130
 Root     12 :    23.508917568672230
 Root     13 :    23.508917568672330
 Root     14 :    24.096385290900020
 Root     15 :    24.131963627758540
 Root     16 :    24.131963627758620
 Root     17 :    24.131963627758660
 Root     18 :    24.131963627758680
 Root     19 :    24.131963627758700
 Root     20 :    24.131963627758700
 Root     21 :    24.131963627759000
 Root     22 :    24.136535432089340
 Root     23 :    24.136535432089440
 Root     24 :    24.136535432089440
 Root     25 :    24.136535432089610
 Root     26 :    24.136535432090220
 Root     27 :    24.168285281462080
 Root     28 :    24.168285281462310
 Root     29 :    24.168285281462370
 Root     30 :    24.463440431632300
 Root     31 :    24.566690345116370
 Root     32 :    24.566690345116390
 Root     33 :    24.566690345116480
 Root     34 :    24.717064151102520
 Root     35 :    24.717064151102530
 Root     36 :    24.717064151102540
 Root     37 :    24.717064151102550
 Root     38 :    24.717064151102550
 Root     39 :    24.717064151102620
 Root     40 :    24.717064151102680
 Root     41 :    24.729982920062420
 Root     42 :    24.729982920062540
 Root     43 :    24.729982920062540
 Root     44 :    24.729982920062550
 Root     45 :    24.729982920062560
 Root     46 :    24.966590669011640
 Root     47 :    27.228702043438630
 Root     48 :    27.228702043438960
 Root     49 :    27.228702043439050
 Root     50 :    27.228702043439080
 Root     51 :    27.228702043439110
 Root     52 :    27.228702043439110
 Root     53 :    27.228702043439110
 Root     54 :    28.306534036292420
 Root     55 :    28.306534036292450
 Root     56 :    28.306534036292510
 Root     57 :    28.306534036292620
 Root     58 :    28.306534036292770
 Root     59 :    28.613172951106610
 Root     60 :    28.613172951106810
 Root     61 :    28.613172951106980
 Root     62 :    32.654899382508750
 Root     63 :    36.856037436767720
 Root     64 :    36.856037436767860
 Root     65 :    36.856037436767930
 Root     66 :    36.856037436768030
 Root     67 :    36.856037436768100
 Root     68 :    36.856037436768210
 Root     69 :    36.856037436768380
 Root     70 :    42.543313423502750
 Root     71 :    42.543313423502800
 Root     72 :    42.543313423502890
 Root     73 :    42.543313423502910
 Root     74 :    42.543313423503200
 Root     75 :    45.923250815152020
 Root     76 :    45.923250815152190
 Root     77 :    45.923250815152910
 Root     78 :    61.045231039392850
 Root     79 :    69.511189150079500
 Root     80 :    69.511189150079530
 Root     81 :    69.511189150079630
 Root     82 :    69.511189150079720
 Root     83 :    69.511189150079790
 Root     84 :    69.511189150079860
 Root     85 :    69.511189150080000
 Root     86 :    90.383813041621380
 Root     87 :    90.383813041621450
 Root     88 :    90.383813041621580
 Root     89 :    90.383813041621920
 Root     90 :    90.383813041622050
 Root     91 :    96.991842854830420
 Root     92 :    96.991842854830790
 Root     93 :    96.991842854830840
 Root     94 :   144.182633985861200
 Root     95 :   176.751980296647400
 Root     96 :   176.751980296647400
 Root     97 :   176.751980296647500
 Root     98 :   176.751980296647600
 Root     99 :   176.751980296647600
 Root    100 :   176.751980296647900
 Root    101 :   176.751980296648000
 Root    102 :   222.585909317471000
 Root    103 :   222.585909317472300
 Root    104 :   222.585909317472300
 Root    105 :   222.585909317472600
 Root    106 :   222.585909317472800
 Root    107 :   234.288730900055900
 Root    108 :   234.288730900056200
 Root    109 :   234.288730900056600
 Root    110 :   391.341152397650900
 Root    111 :   476.342693389058100
 Root    112 :   476.342693389058800
 Root    113 :   476.342693389058900
 Root    114 :   476.342693389059200
 Root    115 :   476.342693389059300
 Root    116 :   476.342693389061200
 Root    117 :   476.342693389061300
 Root    118 :   574.059774833921400
 Root    119 :   574.059774833922500
 Root    120 :   574.059774833922600
 Root    121 :   574.059774833923300
 Root    122 :   574.059774833926900
 Root    123 :   607.208842000163800
 Root    124 :   607.208842000166100
 Root    125 :   607.208842000166300
 Root    126 :  1331.558157900983000
 Root    127 :  1331.558157900983000
 Root    128 :  1331.558157900983000
 Root    129 :  1331.558157900984000
 Root    130 :  1331.558157900984000
 Root    131 :  1331.558157900986000
 Root    132 :  1331.558157900989000
 Root    133 :  1493.213463613703000
 Root    134 :  1555.587039908634000
 Root    135 :  1555.587039908637000
 Root    136 :  1555.587039908649000
 Root    137 :  1555.587039908651000
 Root    138 :  1555.587039908651000
 Root    139 :  1659.220650163301000
 Root    140 :  1659.220650163302000
 Root    141 :  1659.220650163305000
 Convergence achieved for final wavefunctions.
 ***********************************************************************
 Excited states from <AA,BB:AA,BB> singles matrix:
 ***********************************************************************
 
 1PDM for each excited state written to RWF  633
 Ground to excited state transition densities written to RWF  633
 Ground to excited state transition electric dipole moments (Au):
       state          X           Y           Z        Dip. S.      Osc.
         1         0.0000      0.0000      0.0000      0.0000      0.0000
         2         0.0000     -0.4042      0.0000      0.1634      0.0868
         3        -0.2906      0.0000     -0.2810      0.1634      0.0868
         4         0.2810      0.0000     -0.2906      0.1634      0.0868
         5         0.0000      0.0000      0.0000      0.0000      0.0000
         6         0.0000      0.0000      0.0000      0.0000      0.0000
         7         0.0000      0.0000      0.0000      0.0000      0.0000
         8         0.0000      0.0000      0.0000      0.0000      0.0000
         9         0.0000      0.0000      0.0000      0.0000      0.0000
        10         0.0000      0.0000      0.0000      0.0000      0.0000
        11        -0.0295      0.0000      0.2054      0.0431      0.0248
        12         0.0000      0.2075      0.0000      0.0431      0.0248
        13         0.2054      0.0000      0.0295      0.0431      0.0248
        14         0.0000      0.0000      0.0000      0.0000      0.0000
        15         0.0000      0.0000      0.0000      0.0000      0.0000
        16         0.0000      0.0000      0.0000      0.0000      0.0000
        17         0.0000      0.0000      0.0000      0.0000      0.0000
        18         0.0000      0.0000      0.0000      0.0000      0.0000
        19         0.0000      0.0000      0.0000      0.0000      0.0000
        20         0.0000      0.0000      0.0000      0.0000      0.0000
        21         0.0000      0.0000      0.0000      0.0000      0.0000
        22         0.0000      0.0000      0.0000      0.0000      0.0000
        23         0.0000      0.0000      0.0000      0.0000      0.0000
        24         0.0000      0.0000      0.0000      0.0000      0.0000
        25         0.0000      0.0000      0.0000      0.0000      0.0000
        26         0.0000      0.0000      0.0000      0.0000      0.0000
        27         0.0000     -0.1355      0.0000      0.0184      0.0109
        28         0.0921      0.0000     -0.0994      0.0184      0.0109
        29        -0.0994      0.0000     -0.0921      0.0184      0.0109
        30         0.0000      0.0000      0.0000      0.0000      0.0000
        31         0.1385      0.0000      0.1457      0.0404      0.0243
        32         0.0000      0.2011      0.0000      0.0404      0.0243
        33         0.1457      0.0000     -0.1385      0.0404      0.0243
        34         0.0000      0.0000      0.0000      0.0000      0.0000
        35         0.0000      0.0000      0.0000      0.0000      0.0000
        36         0.0000      0.0000      0.0000      0.0000      0.0000
        37         0.0000      0.0000      0.0000      0.0000      0.0000
        38         0.0000      0.0000      0.0000      0.0000      0.0000
        39         0.0000      0.0000      0.0000      0.0000      0.0000
        40         0.0000      0.0000      0.0000      0.0000      0.0000
        41         0.0000      0.0000      0.0000      0.0000      0.0000
        42         0.0000      0.0000      0.0000      0.0000      0.0000
        43         0.0000      0.0000      0.0000      0.0000      0.0000
        44         0.0000      0.0000      0.0000      0.0000      0.0000
        45         0.0000      0.0000      0.0000      0.0000      0.0000
        46         0.0000      0.0000      0.0000      0.0000      0.0000
        47         0.0000      0.0000      0.0000      0.0000      0.0000
        48         0.0000      0.0000      0.0000      0.0000      0.0000
        49         0.0000      0.0000      0.0000      0.0000      0.0000
        50         0.0000      0.0000      0.0000      0.0000      0.0000
        51         0.0000      0.0000      0.0000      0.0000      0.0000
        52         0.0000      0.0000      0.0000      0.0000      0.0000
        53         0.0000      0.0000      0.0000      0.0000      0.0000
        54         0.0000      0.0000      0.0000      0.0000      0.0000
        55         0.0000      0.0000      0.0000      0.0000      0.0000
        56         0.0000      0.0000      0.0000      0.0000      0.0000
        57         0.0000      0.0000      0.0000      0.0000      0.0000
        58         0.0000      0.0000      0.0000      0.0000      0.0000
        59         0.1804      0.0000     -0.4544      0.2390      0.1675
        60        -0.4544      0.0000     -0.1804      0.2390      0.1675
        61         0.0000     -0.4889      0.0000      0.2390      0.1675
        62         0.0000      0.0000      0.0000      0.0000      0.0000
        63         0.0000      0.0000      0.0000      0.0000      0.0000
        64         0.0000      0.0000      0.0000      0.0000      0.0000
        65         0.0000      0.0000      0.0000      0.0000      0.0000
        66         0.0000      0.0000      0.0000      0.0000      0.0000
        67         0.0000      0.0000      0.0000      0.0000      0.0000
        68         0.0000      0.0000      0.0000      0.0000      0.0000
        69         0.0000      0.0000      0.0000      0.0000      0.0000
        70         0.0000      0.0000      0.0000      0.0000      0.0000
        71         0.0000      0.0000      0.0000      0.0000      0.0000
        72         0.0000      0.0000      0.0000      0.0000      0.0000
        73         0.0000      0.0000      0.0000      0.0000      0.0000
        74         0.0000      0.0000      0.0000      0.0000      0.0000
        75         0.2884      0.0000     -0.3838      0.2305      0.2593
        76        -0.3838      0.0000     -0.2884      0.2305      0.2593
        77         0.0000     -0.4801      0.0000      0.2305      0.2593
        78         0.0000      0.0000      0.0000      0.0000      0.0000
        79         0.0000      0.0000      0.0000      0.0000      0.0000
        80         0.0000      0.0000      0.0000      0.0000      0.0000
        81         0.0000      0.0000      0.0000      0.0000      0.0000
        82         0.0000      0.0000      0.0000      0.0000      0.0000
        83         0.0000      0.0000      0.0000      0.0000      0.0000
        84         0.0000      0.0000      0.0000      0.0000      0.0000
        85         0.0000      0.0000      0.0000      0.0000      0.0000
        86         0.0000      0.0000      0.0000      0.0000      0.0000
        87         0.0000      0.0000      0.0000      0.0000      0.0000
        88         0.0000      0.0000      0.0000      0.0000      0.0000
        89         0.0000      0.0000      0.0000      0.0000      0.0000
        90         0.0000      0.0000      0.0000      0.0000      0.0000
        91         0.0000     -0.2236      0.0000      0.0500      0.1188
        92         0.1289      0.0000     -0.1827      0.0500      0.1188
        93        -0.1827      0.0000     -0.1289      0.0500      0.1188
        94         0.0000      0.0000      0.0000      0.0000      0.0000
        95         0.0000      0.0000      0.0000      0.0000      0.0000
        96         0.0000      0.0000      0.0000      0.0000      0.0000
        97         0.0000      0.0000      0.0000      0.0000      0.0000
        98         0.0000      0.0000      0.0000      0.0000      0.0000
        99         0.0000      0.0000      0.0000      0.0000      0.0000
       100         0.0000      0.0000      0.0000      0.0000      0.0000
       101         0.0000      0.0000      0.0000      0.0000      0.0000
       102         0.0000      0.0000      0.0000      0.0000      0.0000
       103         0.0000      0.0000      0.0000      0.0000      0.0000
       104         0.0000      0.0000      0.0000      0.0000      0.0000
       105         0.0000      0.0000      0.0000      0.0000      0.0000
       106         0.0000      0.0000      0.0000      0.0000      0.0000
       107         0.0000      0.0701      0.0000      0.0049      0.0282
       108         0.0402      0.0000      0.0574      0.0049      0.0282
       109         0.0574      0.0000     -0.0402      0.0049      0.0282
       110         0.0000      0.0000      0.0000      0.0000      0.0000
       111         0.0000      0.0000      0.0000      0.0000      0.0000
       112         0.0000      0.0000      0.0000      0.0000      0.0000
       113         0.0000      0.0000      0.0000      0.0000      0.0000
       114         0.0000      0.0000      0.0000      0.0000      0.0000
       115         0.0000      0.0000      0.0000      0.0000      0.0000
       116         0.0000      0.0000      0.0000      0.0000      0.0000
       117         0.0000      0.0000      0.0000      0.0000      0.0000
       118         0.0000      0.0000      0.0000      0.0000      0.0000
       119         0.0000      0.0000      0.0000      0.0000      0.0000
       120         0.0000      0.0000      0.0000      0.0000      0.0000
       121         0.0000      0.0000      0.0000      0.0000      0.0000
       122         0.0000      0.0000      0.0000      0.0000      0.0000
       123         0.0000      0.0146      0.0000      0.0002      0.0032
       124         0.0145      0.0000      0.0018      0.0002      0.0032
       125        -0.0018      0.0000      0.0145      0.0002      0.0032
       126         0.0000      0.0000      0.0000      0.0000      0.0000
       127         0.0000      0.0000      0.0000      0.0000      0.0000
       128         0.0000      0.0000      0.0000      0.0000      0.0000
       129         0.0000      0.0000      0.0000      0.0000      0.0000
       130         0.0000      0.0000      0.0000      0.0000      0.0000
       131         0.0000      0.0000      0.0000      0.0000      0.0000
       132         0.0000      0.0000      0.0000      0.0000      0.0000
       133         0.0000      0.0000      0.0000      0.0000      0.0000
       134         0.0000      0.0000      0.0000      0.0000      0.0000
       135         0.0000      0.0000      0.0000      0.0000      0.0000
       136         0.0000      0.0000      0.0000      0.0000      0.0000
       137         0.0000      0.0000      0.0000      0.0000      0.0000
       138         0.0000      0.0000      0.0000      0.0000      0.0000
       139        -0.0001      0.0000      0.0038      0.0000      0.0006
       140         0.0038      0.0000      0.0001      0.0000      0.0006
       141         0.0000      0.0038      0.0000      0.0000      0.0006
 Ground to excited state transition velocity dipole moments (Au):
       state          X           Y           Z        Dip. S.      Osc.
         1         0.0000      0.0000      0.0000      0.0000      0.0000
         2         0.0000      0.3027      0.0000      0.0916      0.0766
         3         0.2176      0.0000      0.2104      0.0916      0.0766
         4        -0.2104      0.0000      0.2176      0.0916      0.0766
         5         0.0000      0.0000      0.0000      0.0000      0.0000
         6         0.0000      0.0000      0.0000      0.0000      0.0000
         7         0.0000      0.0000      0.0000      0.0000      0.0000
         8         0.0000      0.0000      0.0000      0.0000      0.0000
         9         0.0000      0.0000      0.0000      0.0000      0.0000
        10         0.0000      0.0000      0.0000      0.0000      0.0000
        11         0.0239      0.0000     -0.1662      0.0282      0.0217
        12         0.0000     -0.1679      0.0000      0.0282      0.0217
        13        -0.1662      0.0000     -0.0239      0.0282      0.0217
        14         0.0000      0.0000      0.0000      0.0000      0.0000
        15         0.0000      0.0000      0.0000      0.0000      0.0000
        16         0.0000      0.0000      0.0000      0.0000      0.0000
        17         0.0000      0.0000      0.0000      0.0000      0.0000
        18         0.0000      0.0000      0.0000      0.0000      0.0000
        19         0.0000      0.0000      0.0000      0.0000      0.0000
        20         0.0000      0.0000      0.0000      0.0000      0.0000
        21         0.0000      0.0000      0.0000      0.0000      0.0000
        22         0.0000      0.0000      0.0000      0.0000      0.0000
        23         0.0000      0.0000      0.0000      0.0000      0.0000
        24         0.0000      0.0000      0.0000      0.0000      0.0000
        25         0.0000      0.0000      0.0000      0.0000      0.0000
        26         0.0000      0.0000      0.0000      0.0000      0.0000
        27         0.0000      0.1125      0.0000      0.0127      0.0095
        28        -0.0765      0.0000      0.0825      0.0127      0.0095
        29         0.0825      0.0000      0.0765      0.0127      0.0095
        30         0.0000      0.0000      0.0000      0.0000      0.0000
        31        -0.1176      0.0000     -0.1238      0.0292      0.0215
        32         0.0000     -0.1708      0.0000      0.0292      0.0215
        33        -0.1238      0.0000      0.1176      0.0292      0.0215
        34         0.0000      0.0000      0.0000      0.0000      0.0000
        35         0.0000      0.0000      0.0000      0.0000      0.0000
        36         0.0000      0.0000      0.0000      0.0000      0.0000
        37         0.0000      0.0000      0.0000      0.0000      0.0000
        38         0.0000      0.0000      0.0000      0.0000      0.0000
        39         0.0000      0.0000      0.0000      0.0000      0.0000
        40         0.0000      0.0000      0.0000      0.0000      0.0000
        41         0.0000      0.0000      0.0000      0.0000      0.0000
        42         0.0000      0.0000      0.0000      0.0000      0.0000
        43         0.0000      0.0000      0.0000      0.0000      0.0000
        44         0.0000      0.0000      0.0000      0.0000      0.0000
        45         0.0000      0.0000      0.0000      0.0000      0.0000
        46         0.0000      0.0000      0.0000      0.0000      0.0000
        47         0.0000      0.0000      0.0000      0.0000      0.0000
        48         0.0000      0.0000      0.0000      0.0000      0.0000
        49         0.0000      0.0000      0.0000      0.0000      0.0000
        50         0.0000      0.0000      0.0000      0.0000      0.0000
        51         0.0000      0.0000      0.0000      0.0000      0.0000
        52         0.0000      0.0000      0.0000      0.0000      0.0000
        53         0.0000      0.0000      0.0000      0.0000      0.0000
        54         0.0000      0.0000      0.0000      0.0000      0.0000
        55         0.0000      0.0000      0.0000      0.0000      0.0000
        56         0.0000      0.0000      0.0000      0.0000      0.0000
        57         0.0000      0.0000      0.0000      0.0000      0.0000
        58         0.0000      0.0000      0.0000      0.0000      0.0000
        59        -0.1764      0.0000      0.4443      0.2285      0.1449
        60         0.4443      0.0000      0.1764      0.2285      0.1449
        61         0.0000      0.4780      0.0000      0.2285      0.1449
        62         0.0000      0.0000      0.0000      0.0000      0.0000
        63         0.0000      0.0000      0.0000      0.0000      0.0000
        64         0.0000      0.0000      0.0000      0.0000      0.0000
        65         0.0000      0.0000      0.0000      0.0000      0.0000
        66         0.0000      0.0000      0.0000      0.0000      0.0000
        67         0.0000      0.0000      0.0000      0.0000      0.0000
        68         0.0000      0.0000      0.0000      0.0000      0.0000
        69         0.0000      0.0000      0.0000      0.0000      0.0000
        70         0.0000      0.0000      0.0000      0.0000      0.0000
        71         0.0000      0.0000      0.0000      0.0000      0.0000
        72         0.0000      0.0000      0.0000      0.0000      0.0000
        73         0.0000      0.0000      0.0000      0.0000      0.0000
        74         0.0000      0.0000      0.0000      0.0000      0.0000
        75        -0.4430      0.0000      0.5897      0.5440      0.2149
        76         0.5897      0.0000      0.4430      0.5440      0.2149
        77         0.0000      0.7375      0.0000      0.5439      0.2149
        78         0.0000      0.0000      0.0000      0.0000      0.0000
        79         0.0000      0.0000      0.0000      0.0000      0.0000
        80         0.0000      0.0000      0.0000      0.0000      0.0000
        81         0.0000      0.0000      0.0000      0.0000      0.0000
        82         0.0000      0.0000      0.0000      0.0000      0.0000
        83         0.0000      0.0000      0.0000      0.0000      0.0000
        84         0.0000      0.0000      0.0000      0.0000      0.0000
        85         0.0000      0.0000      0.0000      0.0000      0.0000
        86         0.0000      0.0000      0.0000      0.0000      0.0000
        87         0.0000      0.0000      0.0000      0.0000      0.0000
        88         0.0000      0.0000      0.0000      0.0000      0.0000
        89         0.0000      0.0000      0.0000      0.0000      0.0000
        90         0.0000      0.0000      0.0000      0.0000      0.0000
        91         0.0000      0.7253      0.0000      0.5261      0.0984
        92        -0.4182      0.0000      0.5926      0.5261      0.0984
        93         0.5926      0.0000      0.4182      0.5261      0.0984
        94         0.0000      0.0000      0.0000      0.0000      0.0000
        95         0.0000      0.0000      0.0000      0.0000      0.0000
        96         0.0000      0.0000      0.0000      0.0000      0.0000
        97         0.0000      0.0000      0.0000      0.0000      0.0000
        98         0.0000      0.0000      0.0000      0.0000      0.0000
        99         0.0000      0.0000      0.0000      0.0000      0.0000
       100         0.0000      0.0000      0.0000      0.0000      0.0000
       101         0.0000      0.0000      0.0000      0.0000      0.0000
       102         0.0000      0.0000      0.0000      0.0000      0.0000
       103         0.0000      0.0000      0.0000      0.0000      0.0000
       104         0.0000      0.0000      0.0000      0.0000      0.0000
       105         0.0000      0.0000      0.0000      0.0000      0.0000
       106         0.0000      0.0000      0.0000      0.0000      0.0000
       107         0.0000     -0.5373      0.0000      0.2887      0.0224
       108        -0.3084      0.0000     -0.4400      0.2887      0.0224
       109        -0.4400      0.0000      0.3084      0.2887      0.0224
       110         0.0000      0.0000      0.0000      0.0000      0.0000
       111         0.0000      0.0000      0.0000      0.0000      0.0000
       112         0.0000      0.0000      0.0000      0.0000      0.0000
       113         0.0000      0.0000      0.0000      0.0000      0.0000
       114         0.0000      0.0000      0.0000      0.0000      0.0000
       115         0.0000      0.0000      0.0000      0.0000      0.0000
       116         0.0000      0.0000      0.0000      0.0000      0.0000
       117         0.0000      0.0000      0.0000      0.0000      0.0000
       118         0.0000      0.0000      0.0000      0.0000      0.0000
       119         0.0000      0.0000      0.0000      0.0000      0.0000
       120         0.0000      0.0000      0.0000      0.0000      0.0000
       121         0.0000      0.0000      0.0000      0.0000      0.0000
       122         0.0000      0.0000      0.0000      0.0000      0.0000
       123         0.0000     -0.3321      0.0000      0.1103      0.0033
       124        -0.3295      0.0000     -0.0411      0.1103      0.0033
       125         0.0411      0.0000     -0.3295      0.1103      0.0033
       126         0.0000      0.0000      0.0000      0.0000      0.0000
       127         0.0000      0.0000      0.0000      0.0000      0.0000
       128         0.0000      0.0000      0.0000      0.0000      0.0000
       129         0.0000      0.0000      0.0000      0.0000      0.0000
       130         0.0000      0.0000      0.0000      0.0000      0.0000
       131         0.0000      0.0000      0.0000      0.0000      0.0000
       132         0.0000      0.0000      0.0000      0.0000      0.0000
       133         0.0000      0.0000      0.0000      0.0000      0.0000
       134         0.0000      0.0000      0.0000      0.0000      0.0000
       135         0.0000      0.0000      0.0000      0.0000      0.0000
       136         0.0000      0.0000      0.0000      0.0000      0.0000
       137         0.0000      0.0000      0.0000      0.0000      0.0000
       138         0.0000      0.0000      0.0000      0.0000      0.0000
       139         0.0051      0.0000     -0.1974      0.0390      0.0004
       140        -0.1974      0.0000     -0.0051      0.0390      0.0004
       141         0.0000     -0.1975      0.0000      0.0390      0.0004
 Ground to excited state transition magnetic dipole moments (Au):
       state          X           Y           Z
         1         0.0000      0.0000      0.0000
         2         0.0000      0.0000      0.0000
         3         0.0000      0.0000      0.0000
         4         0.0000      0.0000      0.0000
         5         0.0000      0.0000      0.0000
         6         0.0000      0.0000      0.0000
         7         0.0000      0.0000      0.0000
         8         0.0000      0.0000      0.0000
         9         0.0000      0.0000      0.0000
        10         0.0000      0.0000      0.0000
        11         0.0000      0.0000      0.0000
        12         0.0000      0.0000      0.0000
        13         0.0000      0.0000      0.0000
        14         0.0000      0.0000      0.0000
        15         0.0000      0.0000      0.0000
        16         0.0000      0.0000      0.0000
        17         0.0000      0.0000      0.0000
        18         0.0000      0.0000      0.0000
        19         0.0000      0.0000      0.0000
        20         0.0000      0.0000      0.0000
        21         0.0000      0.0000      0.0000
        22         0.0000      0.0000      0.0000
        23         0.0000      0.0000      0.0000
        24         0.0000      0.0000      0.0000
        25         0.0000      0.0000      0.0000
        26         0.0000      0.0000      0.0000
        27         0.0000      0.0000      0.0000
        28         0.0000      0.0000      0.0000
        29         0.0000      0.0000      0.0000
        30         0.0000      0.0000      0.0000
        31         0.0000      0.0000      0.0000
        32         0.0000      0.0000      0.0000
        33         0.0000      0.0000      0.0000
        34         0.0000      0.0000      0.0000
        35         0.0000      0.0000      0.0000
        36         0.0000      0.0000      0.0000
        37         0.0000      0.0000      0.0000
        38         0.0000      0.0000      0.0000
        39         0.0000      0.0000      0.0000
        40         0.0000      0.0000      0.0000
        41         0.0000      0.0000      0.0000
        42         0.0000      0.0000      0.0000
        43         0.0000      0.0000      0.0000
        44         0.0000      0.0000      0.0000
        45         0.0000      0.0000      0.0000
        46         0.0000      0.0000      0.0000
        47         0.0000      0.0000      0.0000
        48         0.0000      0.0000      0.0000
        49         0.0000      0.0000      0.0000
        50         0.0000      0.0000      0.0000
        51         0.0000      0.0000      0.0000
        52         0.0000      0.0000      0.0000
        53         0.0000      0.0000      0.0000
        54         0.0000      0.0000      0.0000
        55         0.0000      0.0000      0.0000
        56         0.0000      0.0000      0.0000
        57         0.0000      0.0000      0.0000
        58         0.0000      0.0000      0.0000
        59         0.0000      0.0000      0.0000
        60         0.0000      0.0000      0.0000
        61         0.0000      0.0000      0.0000
        62         0.0000      0.0000      0.0000
        63         0.0000      0.0000      0.0000
        64         0.0000      0.0000      0.0000
        65         0.0000      0.0000      0.0000
        66         0.0000      0.0000      0.0000
        67         0.0000      0.0000      0.0000
        68         0.0000      0.0000      0.0000
        69         0.0000      0.0000      0.0000
        70         0.0000      0.0000      0.0000
        71         0.0000      0.0000      0.0000
        72         0.0000      0.0000      0.0000
        73         0.0000      0.0000      0.0000
        74         0.0000      0.0000      0.0000
        75         0.0000      0.0000      0.0000
        76         0.0000      0.0000      0.0000
        77         0.0000      0.0000      0.0000
        78         0.0000      0.0000      0.0000
        79         0.0000      0.0000      0.0000
        80         0.0000      0.0000      0.0000
        81         0.0000      0.0000      0.0000
        82         0.0000      0.0000      0.0000
        83         0.0000      0.0000      0.0000
        84         0.0000      0.0000      0.0000
        85         0.0000      0.0000      0.0000
        86         0.0000      0.0000      0.0000
        87         0.0000      0.0000      0.0000
        88         0.0000      0.0000      0.0000
        89         0.0000      0.0000      0.0000
        90         0.0000      0.0000      0.0000
        91         0.0000      0.0000      0.0000
        92         0.0000      0.0000      0.0000
        93         0.0000      0.0000      0.0000
        94         0.0000      0.0000      0.0000
        95         0.0000      0.0000      0.0000
        96         0.0000      0.0000      0.0000
        97         0.0000      0.0000      0.0000
        98         0.0000      0.0000      0.0000
        99         0.0000      0.0000      0.0000
       100         0.0000      0.0000      0.0000
       101         0.0000      0.0000      0.0000
       102         0.0000      0.0000      0.0000
       103         0.0000      0.0000      0.0000
       104         0.0000      0.0000      0.0000
       105         0.0000      0.0000      0.0000
       106         0.0000      0.0000      0.0000
       107         0.0000      0.0000      0.0000
       108         0.0000      0.0000      0.0000
       109         0.0000      0.0000      0.0000
       110         0.0000      0.0000      0.0000
       111         0.0000      0.0000      0.0000
       112         0.0000      0.0000      0.0000
       113         0.0000      0.0000      0.0000
       114         0.0000      0.0000      0.0000
       115         0.0000      0.0000      0.0000
       116         0.0000      0.0000      0.0000
       117         0.0000      0.0000      0.0000
       118         0.0000      0.0000      0.0000
       119         0.0000      0.0000      0.0000
       120         0.0000      0.0000      0.0000
       121         0.0000      0.0000      0.0000
       122         0.0000      0.0000      0.0000
       123         0.0000      0.0000      0.0000
       124         0.0000      0.0000      0.0000
       125         0.0000      0.0000      0.0000
       126         0.0000      0.0000      0.0000
       127         0.0000      0.0000      0.0000
       128         0.0000      0.0000      0.0000
       129         0.0000      0.0000      0.0000
       130         0.0000      0.0000      0.0000
       131         0.0000      0.0000      0.0000
       132         0.0000      0.0000      0.0000
       133         0.0000      0.0000      0.0000
       134         0.0000      0.0000      0.0000
       135         0.0000      0.0000      0.0000
       136         0.0000      0.0000      0.0000
       137         0.0000      0.0000      0.0000
       138         0.0000      0.0000      0.0000
       139         0.0000      0.0000      0.0000
       140         0.0000      0.0000      0.0000
       141         0.0000      0.0000      0.0000
 Ground to excited state transition velocity quadrupole moments (Au):
       state          XX          YY          ZZ          XY          XZ          YZ
         1         0.3270      0.3270      0.3270      0.0000      0.0000      0.0000
         2         0.0000      0.0000      0.0000      0.0000      0.0000      0.0000
         3         0.0000      0.0000      0.0000      0.0000      0.0000      0.0000
         4         0.0000      0.0000      0.0000      0.0000      0.0000      0.0000
         5        -0.1596     -0.1596     -0.1596      0.0000      0.0000      0.0000
         6        -0.0738     -0.0253      0.0991     -0.0014      0.0448     -0.0418
         7         0.0332     -0.1017      0.0685      0.0084     -0.0276      0.0530
         8         0.0939     -0.0676     -0.0263     -0.0182      0.0336     -0.0567
         9         0.0099     -0.0053     -0.0046      0.1039     -0.0103     -0.0271
        10         0.0132      0.0062     -0.0194      0.0226      0.0878      0.0565
        11         0.0000      0.0000      0.0000      0.0000      0.0000      0.0000
        12         0.0000      0.0000      0.0000      0.0000      0.0000      0.0000
        13         0.0000      0.0000      0.0000      0.0000      0.0000      0.0000
        14         0.0946      0.0946      0.0946      0.0000      0.0000      0.0000
        15         0.0000      0.0000      0.0000      0.0000      0.0000      0.0000
        16         0.0000      0.0000      0.0000      0.0000      0.0000      0.0000
        17         0.0000      0.0000      0.0000      0.0000      0.0000      0.0000
        18         0.0000      0.0000      0.0000      0.0000      0.0000      0.0000
        19         0.0000      0.0000      0.0000      0.0000      0.0000      0.0000
        20         0.0000      0.0000      0.0000      0.0000      0.0000      0.0000
        21         0.0000      0.0000      0.0000      0.0000      0.0000      0.0000
        22        -0.0606      0.0618     -0.0012      0.0379     -0.0068      0.0276
        23         0.0648     -0.0143     -0.0505      0.0395     -0.0095      0.0295
        24        -0.0017      0.0015      0.0002     -0.0075     -0.0761     -0.0120
        25         0.0107      0.0630     -0.0737     -0.0261      0.0065     -0.0227
        26         0.0002     -0.0026      0.0024      0.0475      0.0049     -0.0609
        27         0.0000      0.0000      0.0000      0.0000      0.0000      0.0000
        28         0.0000      0.0000      0.0000      0.0000      0.0000      0.0000
        29         0.0000      0.0000      0.0000      0.0000      0.0000      0.0000
        30        -0.0552     -0.0552     -0.0552      0.0000      0.0000      0.0000
        31         0.0000      0.0000      0.0000      0.0000      0.0000      0.0000
        32         0.0000      0.0000      0.0000      0.0000      0.0000      0.0000
        33         0.0000      0.0000      0.0000      0.0000      0.0000      0.0000
        34         0.0000      0.0000      0.0000      0.0000      0.0000      0.0000
        35         0.0000      0.0000      0.0000      0.0000      0.0000      0.0000
        36         0.0000      0.0000      0.0000      0.0000      0.0000      0.0000
        37         0.0000      0.0000      0.0000      0.0000      0.0000      0.0000
        38         0.0000      0.0000      0.0000      0.0000      0.0000      0.0000
        39         0.0000      0.0000      0.0000      0.0000      0.0000      0.0000
        40         0.0000      0.0000      0.0000      0.0000      0.0000      0.0000
        41         0.0156     -0.1518      0.1362     -0.0052     -0.0113     -0.0374
        42         0.0561     -0.0131     -0.0430      0.1009     -0.0953     -0.0249
        43        -0.0546      0.0089      0.0457      0.1105      0.0869      0.0119
        44         0.1407     -0.0816     -0.0591      0.0053      0.0472      0.0723
        45        -0.0613     -0.0018      0.0631      0.0049     -0.0591      0.1228
        46        -0.2194     -0.2194     -0.2194      0.0000      0.0000      0.0000
        47         0.0000      0.0000      0.0000      0.0000      0.0000      0.0000
        48         0.0000      0.0000      0.0000      0.0000      0.0000      0.0000
        49         0.0000      0.0000      0.0000      0.0000      0.0000      0.0000
        50         0.0000      0.0000      0.0000      0.0000      0.0000      0.0000
        51         0.0000      0.0000      0.0000      0.0000      0.0000      0.0000
        52         0.0000      0.0000      0.0000      0.0000      0.0000      0.0000
        53         0.0000      0.0000      0.0000      0.0000      0.0000      0.0000
        54         0.0012      0.0588     -0.0600      0.3631     -0.1917     -0.0581
        55         0.3458     -0.4554      0.1096      0.0037     -0.0669     -0.0400
        56        -0.0050     -0.0895      0.0945      0.2075      0.3479      0.0544
        57        -0.1741     -0.0919      0.2660      0.0221     -0.1136      0.3277
        58        -0.2901     -0.0824      0.3725     -0.0110     -0.0183     -0.2455
        59         0.0000      0.0000      0.0000      0.0000      0.0000      0.0000
        60         0.0000      0.0000      0.0000      0.0000      0.0000      0.0000
        61         0.0000      0.0000      0.0000      0.0000      0.0000      0.0000
        62         0.4350      0.4350      0.4350      0.0000      0.0000      0.0000
        63         0.0000      0.0000      0.0000      0.0000      0.0000      0.0000
        64         0.0000      0.0000      0.0000      0.0000      0.0000      0.0000
        65         0.0000      0.0000      0.0000      0.0000      0.0000      0.0000
        66         0.0000      0.0000      0.0000      0.0000      0.0000      0.0000
        67         0.0000      0.0000      0.0000      0.0000      0.0000      0.0000
        68         0.0000      0.0000      0.0000      0.0000      0.0000      0.0000
        69         0.0000      0.0000      0.0000      0.0000      0.0000      0.0000
        70        -0.5052     -0.2741      0.7793     -0.0770      0.3466      0.0030
        71         0.3080     -0.4336      0.1256      0.5051      0.0204      0.4359
        72         0.6289     -0.5196     -0.1093     -0.4198      0.2825      0.0084
        73        -0.0186      0.4055     -0.3868      0.2079      0.6280     -0.0064
        74        -0.2172      0.3092     -0.0920     -0.3381     -0.0130      0.6362
        75         0.0000      0.0000      0.0000      0.0000      0.0000      0.0000
        76         0.0000      0.0000      0.0000      0.0000      0.0000      0.0000
        77         0.0000      0.0000      0.0000      0.0000      0.0000      0.0000
        78         0.3898      0.3898      0.3898      0.0000      0.0000      0.0000
        79         0.0000      0.0000      0.0000      0.0000      0.0000      0.0000
        80         0.0000      0.0000      0.0000      0.0000      0.0000      0.0000
        81         0.0000      0.0000      0.0000      0.0000      0.0000      0.0000
        82         0.0000      0.0000      0.0000      0.0000      0.0000      0.0000
        83         0.0000      0.0000      0.0000      0.0000      0.0000      0.0000
        84         0.0000      0.0000      0.0000      0.0000      0.0000      0.0000
        85         0.0000      0.0000      0.0000      0.0000      0.0000      0.0000
        86         0.2449     -0.6617      0.4168      0.2049      0.0693     -0.4027
        87         0.2928     -0.5297      0.2369     -0.1865     -0.0397      0.5451
        88        -0.0128      0.0180     -0.0052      0.5122     -0.5091      0.1516
        89        -0.7605      0.0562      0.7043     -0.0421     -0.0167      0.0628
        90        -0.0465      0.0662     -0.0197      0.4515      0.5281      0.2419
        91         0.0000      0.0000      0.0000      0.0000      0.0000      0.0000
        92         0.0000      0.0000      0.0000      0.0000      0.0000      0.0000
        93         0.0000      0.0000      0.0000      0.0000      0.0000      0.0000
        94         0.2147      0.2147      0.2147      0.0000      0.0000      0.0000
        95         0.0000      0.0000      0.0000      0.0000      0.0000      0.0000
        96         0.0000      0.0000      0.0000      0.0000      0.0000      0.0000
        97         0.0000      0.0000      0.0000      0.0000      0.0000      0.0000
        98         0.0000      0.0000      0.0000      0.0000      0.0000      0.0000
        99         0.0000      0.0000      0.0000      0.0000      0.0000      0.0000
       100         0.0000      0.0000      0.0000      0.0000      0.0000      0.0000
       101         0.0000      0.0000      0.0000      0.0000      0.0000      0.0000
       102        -0.0002      0.0002     -0.0001      0.3937     -0.0752      0.0061
       103         0.2760     -0.4549      0.1789      0.0004     -0.0035     -0.0556
       104        -0.3260     -0.0103      0.3363      0.0012     -0.0120     -0.2253
       105        -0.1782     -0.0847      0.2629     -0.0018      0.0171      0.3261
       106         0.0002     -0.0006      0.0004      0.0754      0.3932     -0.0204
       107         0.0000      0.0000      0.0000      0.0000      0.0000      0.0000
       108         0.0000      0.0000      0.0000      0.0000      0.0000      0.0000
       109         0.0000      0.0000      0.0000      0.0000      0.0000      0.0000
       110         0.0917      0.0917      0.0917      0.0000      0.0000      0.0000
       111         0.0000      0.0000      0.0000      0.0000      0.0000      0.0000
       112         0.0000      0.0000      0.0000      0.0000      0.0000      0.0000
       113         0.0000      0.0000      0.0000      0.0000      0.0000      0.0000
       114         0.0000      0.0000      0.0000      0.0000      0.0000      0.0000
       115         0.0000      0.0000      0.0000      0.0000      0.0000      0.0000
       116         0.0000      0.0000      0.0000      0.0000      0.0000      0.0000
       117         0.0000      0.0000      0.0000      0.0000      0.0000      0.0000
       118         0.1495     -0.1802      0.0308      0.0000      0.0003      0.0681
       119         0.0000      0.0001      0.0000      0.1800     -0.0111      0.0003
       120        -0.0686      0.0690     -0.0004     -0.0002      0.0007      0.1666
       121        -0.1277     -0.0782      0.2060      0.0000     -0.0001     -0.0099
       122         0.0000      0.0001     -0.0001      0.0110      0.1800     -0.0007
       123         0.0000      0.0000      0.0000      0.0000      0.0000      0.0000
       124         0.0000      0.0000      0.0000      0.0000      0.0000      0.0000
       125         0.0000      0.0000      0.0000      0.0000      0.0000      0.0000
       126         0.0000      0.0000      0.0000      0.0000      0.0000      0.0000
       127         0.0000      0.0000      0.0000      0.0000      0.0000      0.0000
       128         0.0000      0.0000      0.0000      0.0000      0.0000      0.0000
       129         0.0000      0.0000      0.0000      0.0000      0.0000      0.0000
       130         0.0000      0.0000      0.0000      0.0000      0.0000      0.0000
       131         0.0000      0.0000      0.0000      0.0000      0.0000      0.0000
       132         0.0000      0.0000      0.0000      0.0000      0.0000      0.0000
       133        -0.0290     -0.0290     -0.0290      0.0000      0.0000      0.0000
       134        -0.0417     -0.0313      0.0730      0.0000     -0.0001     -0.0001
       135         0.0602     -0.0663      0.0060      0.0000      0.0010     -0.0001
       136        -0.0005      0.0005      0.0000      0.0008      0.0355      0.0526
       137        -0.0009      0.0009      0.0000      0.0012      0.0525     -0.0356
       138         0.0000      0.0000      0.0000      0.0635     -0.0014      0.0000
       139         0.0000      0.0000      0.0000      0.0000      0.0000      0.0000
       140         0.0000      0.0000      0.0000      0.0000      0.0000      0.0000
       141         0.0000      0.0000      0.0000      0.0000      0.0000      0.0000
 <0|del|b> * <b|rxdel|0> + <0|del|b> * <b|delr+rdel|0>
 Rotatory Strengths (R) in cgs (10**-40 erg-esu-cm/Gauss)
       state          XX          YY          ZZ    R(velocity)    E-M Angle
         1         0.0000      0.0000      0.0000      0.0000       90.00
         2         0.0000      0.0000      0.0000      0.0000       90.00
         3         0.0000      0.0000      0.0000      0.0000       90.00
         4         0.0000      0.0000      0.0000      0.0000       90.00
         5         0.0000      0.0000      0.0000      0.0000       90.00
         6         0.0000      0.0000      0.0000      0.0000       90.00
         7         0.0000      0.0000      0.0000      0.0000       90.00
         8         0.0000      0.0000      0.0000      0.0000       90.00
         9         0.0000      0.0000      0.0000      0.0000       90.00
        10         0.0000      0.0000      0.0000      0.0000       90.00
        11         0.0000      0.0000      0.0000      0.0000       90.00
        12         0.0000      0.0000      0.0000      0.0000       90.00
        13         0.0000      0.0000      0.0000      0.0000       90.00
        14         0.0000      0.0000      0.0000      0.0000       90.00
        15         0.0000      0.0000      0.0000      0.0000       90.00
        16         0.0000      0.0000      0.0000      0.0000       90.00
        17         0.0000      0.0000      0.0000      0.0000       90.00
        18         0.0000      0.0000      0.0000      0.0000       90.00
        19         0.0000      0.0000      0.0000      0.0000       90.00
        20         0.0000      0.0000      0.0000      0.0000       90.00
        21         0.0000      0.0000      0.0000      0.0000       90.00
        22         0.0000      0.0000      0.0000      0.0000       90.00
        23         0.0000      0.0000      0.0000      0.0000       90.00
        24         0.0000      0.0000      0.0000      0.0000       90.00
        25         0.0000      0.0000      0.0000      0.0000       90.00
        26         0.0000      0.0000      0.0000      0.0000       90.00
        27         0.0000      0.0000      0.0000      0.0000       90.00
        28         0.0000      0.0000      0.0000      0.0000       90.00
        29         0.0000      0.0000      0.0000      0.0000       90.00
        30         0.0000      0.0000      0.0000      0.0000       90.00
        31         0.0000      0.0000      0.0000      0.0000       90.00
        32         0.0000      0.0000      0.0000      0.0000       90.00
        33         0.0000      0.0000      0.0000      0.0000       90.00
        34         0.0000      0.0000      0.0000      0.0000       90.00
        35         0.0000      0.0000      0.0000      0.0000       90.00
        36         0.0000      0.0000      0.0000      0.0000       90.00
        37         0.0000      0.0000      0.0000      0.0000       90.00
        38         0.0000      0.0000      0.0000      0.0000       90.00
        39         0.0000      0.0000      0.0000      0.0000       90.00
        40         0.0000      0.0000      0.0000      0.0000       90.00
        41         0.0000      0.0000      0.0000      0.0000       90.00
        42         0.0000      0.0000      0.0000      0.0000       90.00
        43         0.0000      0.0000      0.0000      0.0000       90.00
        44         0.0000      0.0000      0.0000      0.0000       90.00
        45         0.0000      0.0000      0.0000      0.0000       90.00
        46         0.0000      0.0000      0.0000      0.0000       90.00
        47         0.0000      0.0000      0.0000      0.0000       90.00
        48         0.0000      0.0000      0.0000      0.0000       90.00
        49         0.0000      0.0000      0.0000      0.0000       90.00
        50         0.0000      0.0000      0.0000      0.0000       90.00
        51         0.0000      0.0000      0.0000      0.0000       90.00
        52         0.0000      0.0000      0.0000      0.0000       90.00
        53         0.0000      0.0000      0.0000      0.0000       90.00
        54         0.0000      0.0000      0.0000      0.0000       90.00
        55         0.0000      0.0000      0.0000      0.0000       90.00
        56         0.0000      0.0000      0.0000      0.0000       90.00
        57         0.0000      0.0000      0.0000      0.0000       90.00
        58         0.0000      0.0000      0.0000      0.0000       90.00
        59         0.0000      0.0000      0.0000      0.0000       90.00
        60         0.0000      0.0000      0.0000      0.0000       90.00
        61         0.0000      0.0000      0.0000      0.0000       90.00
        62         0.0000      0.0000      0.0000      0.0000       90.00
        63         0.0000      0.0000      0.0000      0.0000       90.00
        64         0.0000      0.0000      0.0000      0.0000       90.00
        65         0.0000      0.0000      0.0000      0.0000       90.00
        66         0.0000      0.0000      0.0000      0.0000       90.00
        67         0.0000      0.0000      0.0000      0.0000       90.00
        68         0.0000      0.0000      0.0000      0.0000       90.00
        69         0.0000      0.0000      0.0000      0.0000       90.00
        70         0.0000      0.0000      0.0000      0.0000       90.00
        71         0.0000      0.0000      0.0000      0.0000       90.00
        72         0.0000      0.0000      0.0000      0.0000       90.00
        73         0.0000      0.0000      0.0000      0.0000       90.00
        74         0.0000      0.0000      0.0000      0.0000       90.00
        75         0.0000      0.0000      0.0000      0.0000       90.00
        76         0.0000      0.0000      0.0000      0.0000       90.00
        77         0.0000      0.0000      0.0000      0.0000       90.00
        78         0.0000      0.0000      0.0000      0.0000       90.00
        79         0.0000      0.0000      0.0000      0.0000       90.00
        80         0.0000      0.0000      0.0000      0.0000       90.00
        81         0.0000      0.0000      0.0000      0.0000       90.00
        82         0.0000      0.0000      0.0000      0.0000       90.00
        83         0.0000      0.0000      0.0000      0.0000       90.00
        84         0.0000      0.0000      0.0000      0.0000       90.00
        85         0.0000      0.0000      0.0000      0.0000       90.00
        86         0.0000      0.0000      0.0000      0.0000       90.00
        87         0.0000      0.0000      0.0000      0.0000       90.00
        88         0.0000      0.0000      0.0000      0.0000       90.00
        89         0.0000      0.0000      0.0000      0.0000       90.00
        90         0.0000      0.0000      0.0000      0.0000       90.00
[...]
                 (T2G) (EG) (T2G) (EG) (T1U) (T1U) (T1U) (A1G)
                 (?A) (?A) (?A) (?A) (A2U) (?A) (?A) (EG) (T2G)
                 (T2G) (T2G) (EG) (T1U) (T1U) (T1U) (A1G) (?A)
                 (?A) (?A) (?A) (?A) (A2U) (?A) (T2G) (EG) (T2G)
                 (T2G) (EG) (T1U) (T1U) (T1U) (A1G) (?A) (?A) (?A)
                 (A2U) (?A) (?A) (?A) (EG) (EG) (T2G) (T2G) (T2G)
                 (T1U) (T1U) (T1U) (?A) (A2U) (?A) (?A) (?A) (?A)
                 (?A) (A1G) (EG) (EG) (T2G) (T2G) (T2G) (T1U) (T1U)
                 (T1U)
 The electronic state is 1-A1G.
 Alpha  occ. eigenvalues --   -0.91795
 Alpha virt. eigenvalues --    0.00071   0.00359   0.00359   0.00359   0.00385
 Alpha virt. eigenvalues --    0.00979   0.00979   0.00979   0.00979   0.00979
 Alpha virt. eigenvalues --    0.01401   0.01473   0.01473   0.01473   0.02149
 Alpha virt. eigenvalues --    0.02149   0.02149   0.02149   0.02149   0.02149
 Alpha virt. eigenvalues --    0.02149   0.03583   0.03583   0.03583   0.03583
 Alpha virt. eigenvalues --    0.03583   0.04701   0.04763   0.04763   0.04763
 Alpha virt. eigenvalues --    0.07429   0.07429   0.07429   0.07429   0.07429
 Alpha virt. eigenvalues --    0.07429   0.07429   0.11215   0.11215   0.11215
 Alpha virt. eigenvalues --    0.11215   0.11215   0.14402   0.14402   0.14402
 Alpha virt. eigenvalues --    0.15997   0.22865   0.22865   0.22865   0.22865
 Alpha virt. eigenvalues --    0.22865   0.22865   0.22865   0.33934   0.33934
 Alpha virt. eigenvalues --    0.33934   0.33934   0.33934   0.41680   0.41680
 Alpha virt. eigenvalues --    0.41680   0.55019   0.68906   0.68906   0.68906
 Alpha virt. eigenvalues --    0.68906   0.68906   0.68906   0.68906   1.00920
 Alpha virt. eigenvalues --    1.00920   1.00920   1.00920   1.00920   1.17856
 Alpha virt. eigenvalues --    1.17856   1.17856   1.73167   2.06207   2.06207
 Alpha virt. eigenvalues --    2.06207   2.06207   2.06207   2.06207   2.06207
 Alpha virt. eigenvalues --    2.96101   2.96101   2.96101   2.96101   2.96101
 Alpha virt. eigenvalues --    3.21269   3.21269   3.21269   5.02345   6.24737
 Alpha virt. eigenvalues --    6.24737   6.24737   6.24737   6.24737   6.24737
 Alpha virt. eigenvalues --    6.24737   8.04014   8.04014   8.04014   8.04014
 Alpha virt. eigenvalues --    8.04014   8.49079   8.49079   8.49079  14.42583
 Alpha virt. eigenvalues --   17.52554  17.52554  17.52554  17.52554  17.52554
 Alpha virt. eigenvalues --   17.52554  17.52554  21.21180  21.21180  21.21180
 Alpha virt. eigenvalues --   21.21180  21.21180  22.46814  22.46814  22.46814
 Alpha virt. eigenvalues --   49.23592  49.23592  49.23592  49.23592  49.23592
 Alpha virt. eigenvalues --   49.23592  49.23592  55.27314  57.54217  57.54217
 Alpha virt. eigenvalues --   57.54217  57.54217  57.54217  61.38763  61.38763
 Alpha virt. eigenvalues --   61.38763
          Condensed to atoms (all electrons):
               1
     1  He   2.000000
 Mulliken charges:
               1
     1  He   0.000000
 Sum of Mulliken charges =   0.00000
 Mulliken charges with hydrogens summed into heavy atoms:
               1
     1  He   0.000000
 Electronic spatial extent (au):  <R**2>=              2.3698
 Charge=              0.0000 electrons
 Dipole moment (field-independent basis, Debye):
    X=              0.0000    Y=              0.0000    Z=              0.0000  Tot=              0.0000
 Quadrupole moment (field-independent basis, Debye-Ang):
   XX=             -1.0625   YY=             -1.0625   ZZ=             -1.0625
   XY=              0.0000   XZ=              0.0000   YZ=              0.0000
 Traceless Quadrupole moment (field-independent basis, Debye-Ang):
   XX=              0.0000   YY=              0.0000   ZZ=              0.0000
   XY=              0.0000   XZ=              0.0000   YZ=              0.0000
 Octapole moment (field-independent basis, Debye-Ang**2):
  XXX=              0.0000  YYY=              0.0000  ZZZ=              0.0000  XYY=              0.0000
  XXY=              0.0000  XXZ=              0.0000  XZZ=              0.0000  YZZ=              0.0000
  YYZ=              0.0000  XYZ=              0.0000
 Hexadecapole moment (field-independent basis, Debye-Ang**3):
 XXXX=             -0.5879 YYYY=             -0.5879 ZZZZ=             -0.5879 XXXY=              0.0000
 XXXZ=              0.0000 YYYX=              0.0000 YYYZ=              0.0000 ZZZX=              0.0000
 ZZZY=              0.0000 XXYY=             -0.1960 XXZZ=             -0.1960 YYZZ=             -0.1960
 XXYZ=              0.0000 YYXZ=              0.0000 ZZXY=              0.0000
 N-N= 0.000000000000D+00 E-N=-6.749099286288D+00  KE= 2.861660336957D+00
 Symmetry AG   KE= 2.861660336957D+00
 Symmetry B1G  KE= 4.522903964933D-61
 Symmetry B2G  KE= 5.719053398171D-61
 Symmetry B3G  KE= 4.263039800972D-61
 Symmetry AU   KE= 0.000000000000D+00
 Symmetry B1U  KE= 0.000000000000D+00
 Symmetry B2U  KE= 0.000000000000D+00
 Symmetry B3U  KE= 0.000000000000D+00
 Leave Link  601 at Mon Jun 10 13:58:38 2024, MaxMem=   536870912 cpu:               1.0 elap:               0.7
 (Enter C:\G16W\l9999.exe)
 Electronic transition elements 
                 1             2             3             4             5 
      1  -0.214659D+01 -0.212434D+01 -0.212434D+01 -0.212434D+01 -0.206156D+01
      2   0.000000D+00  0.000000D+00  0.000000D+00  0.418615D+00  0.000000D+00
      3   0.000000D+00  0.000000D+00  0.418615D+00  0.000000D+00  0.000000D+00
      4   0.000000D+00  0.418615D+00  0.000000D+00  0.000000D+00  0.000000D+00
      5   0.000000D+00  0.000000D+00  0.000000D+00  0.326857D+00  0.000000D+00
      6   0.000000D+00  0.000000D+00  0.326857D+00  0.000000D+00  0.000000D+00
      7   0.000000D+00  0.326857D+00  0.000000D+00  0.000000D+00  0.000000D+00
      8   0.000000D+00  0.000000D+00  0.000000D+00  0.000000D+00  0.000000D+00
      9   0.000000D+00  0.000000D+00  0.000000D+00  0.000000D+00  0.000000D+00
     10   0.000000D+00  0.000000D+00  0.000000D+00  0.000000D+00  0.000000D+00
     11   0.000000D+00  0.000000D+00  0.000000D+00  0.000000D+00  0.000000D+00
     12   0.000000D+00  0.000000D+00  0.000000D+00  0.000000D+00  0.000000D+00
     13   0.000000D+00  0.000000D+00  0.000000D+00  0.000000D+00  0.000000D+00
     14   0.000000D+00  0.000000D+00  0.000000D+00  0.000000D+00  0.000000D+00
     15   0.000000D+00  0.000000D+00  0.000000D+00  0.000000D+00  0.000000D+00
     16   0.000000D+00  0.000000D+00  0.000000D+00  0.000000D+00  0.000000D+00
     17  -0.214659D+01 -0.212434D+01 -0.212434D+01 -0.212434D+01 -0.206156D+01
     18   0.000000D+00  0.000000D+00  0.000000D+00  0.419671D+00  0.000000D+00
     19   0.000000D+00  0.000000D+00  0.419671D+00  0.000000D+00  0.000000D+00
     20   0.000000D+00  0.419671D+00  0.000000D+00  0.000000D+00  0.000000D+00
     21   0.000000D+00  0.000000D+00  0.000000D+00  0.328602D+00  0.000000D+00
     22   0.000000D+00  0.000000D+00  0.328602D+00  0.000000D+00  0.000000D+00
     23   0.000000D+00  0.328602D+00  0.000000D+00  0.000000D+00  0.000000D+00
     24   0.000000D+00  0.000000D+00  0.000000D+00  0.000000D+00  0.000000D+00
     25   0.000000D+00  0.000000D+00  0.000000D+00  0.000000D+00  0.000000D+00
     26   0.000000D+00  0.000000D+00  0.000000D+00  0.000000D+00  0.000000D+00
     27   0.000000D+00  0.000000D+00  0.000000D+00  0.000000D+00  0.000000D+00
     28   0.000000D+00  0.000000D+00  0.000000D+00  0.000000D+00  0.000000D+00
     29   0.000000D+00  0.000000D+00  0.000000D+00  0.000000D+00  0.000000D+00
     30   0.000000D+00  0.000000D+00  0.000000D+00  0.000000D+00  0.000000D+00
     31   0.000000D+00  0.000000D+00  0.000000D+00  0.000000D+00  0.000000D+00
     32   0.000000D+00  0.000000D+00  0.000000D+00  0.000000D+00  0.000000D+00
                 6             7             8             9            10 
      1  -0.205608D+01 -0.205608D+01 -0.205608D+01 -0.205608D+01 -0.205608D+01
      2   0.000000D+00  0.000000D+00  0.000000D+00  0.000000D+00  0.000000D+00
      3   0.000000D+00  0.000000D+00  0.000000D+00  0.000000D+00  0.000000D+00
      4   0.000000D+00  0.000000D+00  0.000000D+00  0.000000D+00  0.000000D+00
      5   0.000000D+00  0.000000D+00  0.000000D+00  0.000000D+00  0.000000D+00
      6   0.000000D+00  0.000000D+00  0.000000D+00  0.000000D+00  0.000000D+00
      7   0.000000D+00  0.000000D+00  0.000000D+00  0.000000D+00  0.000000D+00
      8   0.000000D+00  0.000000D+00  0.000000D+00  0.000000D+00  0.000000D+00
      9   0.000000D+00  0.000000D+00  0.000000D+00  0.000000D+00  0.000000D+00
     10   0.000000D+00  0.000000D+00  0.000000D+00  0.000000D+00  0.000000D+00
     11   0.000000D+00  0.000000D+00  0.000000D+00  0.000000D+00  0.000000D+00
     12   0.000000D+00  0.000000D+00  0.000000D+00  0.000000D+00  0.000000D+00
     13   0.000000D+00  0.000000D+00  0.000000D+00  0.000000D+00  0.000000D+00
     14   0.000000D+00  0.000000D+00  0.000000D+00  0.000000D+00  0.000000D+00
     15   0.000000D+00  0.000000D+00  0.000000D+00  0.000000D+00  0.000000D+00
     16   0.000000D+00  0.000000D+00  0.000000D+00  0.000000D+00  0.000000D+00
     17  -0.205608D+01 -0.205608D+01 -0.205608D+01 -0.205608D+01 -0.205608D+01
     18   0.000000D+00  0.000000D+00  0.000000D+00  0.000000D+00  0.000000D+00
     19   0.000000D+00  0.000000D+00  0.000000D+00  0.000000D+00  0.000000D+00
     20   0.000000D+00  0.000000D+00  0.000000D+00  0.000000D+00  0.000000D+00
     21   0.000000D+00  0.000000D+00  0.000000D+00  0.000000D+00  0.000000D+00
     22   0.000000D+00  0.000000D+00  0.000000D+00  0.000000D+00  0.000000D+00
     23   0.000000D+00  0.000000D+00  0.000000D+00  0.000000D+00  0.000000D+00
     24   0.000000D+00  0.000000D+00  0.000000D+00  0.000000D+00  0.000000D+00
     25   0.000000D+00  0.000000D+00  0.000000D+00  0.000000D+00  0.000000D+00
     26   0.000000D+00  0.000000D+00  0.000000D+00  0.000000D+00  0.000000D+00
     27   0.000000D+00  0.000000D+00  0.000000D+00  0.000000D+00  0.000000D+00
     28   0.000000D+00  0.000000D+00  0.000000D+00  0.000000D+00  0.000000D+00
     29   0.000000D+00  0.000000D+00  0.000000D+00  0.000000D+00  0.000000D+00
     30   0.000000D+00  0.000000D+00  0.000000D+00  0.000000D+00  0.000000D+00
     31   0.000000D+00  0.000000D+00  0.000000D+00  0.000000D+00  0.000000D+00
     32   0.000000D+00  0.000000D+00  0.000000D+00  0.000000D+00  0.000000D+00
                11            12            13            14            15 
      1  -0.205544D+01 -0.205544D+01 -0.205544D+01 -0.203335D+01 -0.203166D+01
      2  -0.208741D+00  0.000000D+00  0.000000D+00  0.000000D+00  0.000000D+00
      3   0.000000D+00 -0.208741D+00  0.000000D+00  0.000000D+00  0.000000D+00
      4   0.000000D+00  0.000000D+00 -0.208741D+00  0.000000D+00  0.000000D+00
      5  -0.177291D+00  0.000000D+00  0.000000D+00  0.000000D+00  0.000000D+00
      6   0.000000D+00 -0.177291D+00  0.000000D+00  0.000000D+00  0.000000D+00
      7   0.000000D+00  0.000000D+00 -0.177291D+00  0.000000D+00  0.000000D+00
      8   0.000000D+00  0.000000D+00  0.000000D+00  0.000000D+00  0.000000D+00
      9   0.000000D+00  0.000000D+00  0.000000D+00  0.000000D+00  0.000000D+00
     10   0.000000D+00  0.000000D+00  0.000000D+00  0.000000D+00  0.000000D+00
     11   0.000000D+00  0.000000D+00  0.000000D+00  0.000000D+00  0.000000D+00
     12   0.000000D+00  0.000000D+00  0.000000D+00  0.000000D+00  0.000000D+00
     13   0.000000D+00  0.000000D+00  0.000000D+00  0.000000D+00  0.000000D+00
     14   0.000000D+00  0.000000D+00  0.000000D+00  0.000000D+00  0.000000D+00
     15   0.000000D+00  0.000000D+00  0.000000D+00  0.000000D+00  0.000000D+00
     16   0.000000D+00  0.000000D+00  0.000000D+00  0.000000D+00  0.000000D+00
     17  -0.205544D+01 -0.205544D+01 -0.205544D+01 -0.203335D+01 -0.203166D+01
     18  -0.209523D+00  0.000000D+00  0.000000D+00  0.000000D+00  0.000000D+00
     19   0.000000D+00 -0.209523D+00  0.000000D+00  0.000000D+00  0.000000D+00
     20   0.000000D+00  0.000000D+00 -0.209523D+00  0.000000D+00  0.000000D+00
     21  -0.178315D+00  0.000000D+00  0.000000D+00  0.000000D+00  0.000000D+00
     22   0.000000D+00 -0.178315D+00  0.000000D+00  0.000000D+00  0.000000D+00
     23   0.000000D+00  0.000000D+00 -0.178315D+00  0.000000D+00  0.000000D+00
     24   0.000000D+00  0.000000D+00  0.000000D+00  0.000000D+00  0.000000D+00
     25   0.000000D+00  0.000000D+00  0.000000D+00  0.000000D+00  0.000000D+00
     26   0.000000D+00  0.000000D+00  0.000000D+00  0.000000D+00  0.000000D+00
     27   0.000000D+00  0.000000D+00  0.000000D+00  0.000000D+00  0.000000D+00
     28   0.000000D+00  0.000000D+00  0.000000D+00  0.000000D+00  0.000000D+00
     29   0.000000D+00  0.000000D+00  0.000000D+00  0.000000D+00  0.000000D+00
     30   0.000000D+00  0.000000D+00  0.000000D+00  0.000000D+00  0.000000D+00
     31   0.000000D+00  0.000000D+00  0.000000D+00  0.000000D+00  0.000000D+00
     32   0.000000D+00  0.000000D+00  0.000000D+00  0.000000D+00  0.000000D+00
                16            17            18            19            20 
      1  -0.203166D+01 -0.203166D+01 -0.203166D+01 -0.203166D+01 -0.203166D+01
      2   0.000000D+00  0.000000D+00  0.000000D+00  0.000000D+00  0.000000D+00
      3   0.000000D+00  0.000000D+00  0.000000D+00  0.000000D+00  0.000000D+00
      4   0.000000D+00  0.000000D+00  0.000000D+00  0.000000D+00  0.000000D+00
      5   0.000000D+00  0.000000D+00  0.000000D+00  0.000000D+00  0.000000D+00
      6   0.000000D+00  0.000000D+00  0.000000D+00  0.000000D+00  0.000000D+00
      7   0.000000D+00  0.000000D+00  0.000000D+00  0.000000D+00  0.000000D+00
      8   0.000000D+00  0.000000D+00  0.000000D+00  0.000000D+00  0.000000D+00
      9   0.000000D+00  0.000000D+00  0.000000D+00  0.000000D+00  0.000000D+00
     10   0.000000D+00  0.000000D+00  0.000000D+00  0.000000D+00  0.000000D+00
     11   0.000000D+00  0.000000D+00  0.000000D+00  0.000000D+00  0.000000D+00
     12   0.000000D+00  0.000000D+00  0.000000D+00  0.000000D+00  0.000000D+00
     13   0.000000D+00  0.000000D+00  0.000000D+00  0.000000D+00  0.000000D+00
     14   0.000000D+00  0.000000D+00  0.000000D+00  0.000000D+00  0.000000D+00
     15   0.000000D+00  0.000000D+00  0.000000D+00  0.000000D+00  0.000000D+00
     16   0.000000D+00  0.000000D+00  0.000000D+00  0.000000D+00  0.000000D+00
     17  -0.203166D+01 -0.203166D+01 -0.203166D+01 -0.203166D+01 -0.203166D+01
     18   0.000000D+00  0.000000D+00  0.000000D+00  0.000000D+00  0.000000D+00
     19   0.000000D+00  0.000000D+00  0.000000D+00  0.000000D+00  0.000000D+00
     20   0.000000D+00  0.000000D+00  0.000000D+00  0.000000D+00  0.000000D+00
     21   0.000000D+00  0.000000D+00  0.000000D+00  0.000000D+00  0.000000D+00
     22   0.000000D+00  0.000000D+00  0.000000D+00  0.000000D+00  0.000000D+00
     23   0.000000D+00  0.000000D+00  0.000000D+00  0.000000D+00  0.000000D+00
     24   0.000000D+00  0.000000D+00  0.000000D+00  0.000000D+00  0.000000D+00
     25   0.000000D+00  0.000000D+00  0.000000D+00  0.000000D+00  0.000000D+00
     26   0.000000D+00  0.000000D+00  0.000000D+00  0.000000D+00  0.000000D+00
     27   0.000000D+00  0.000000D+00  0.000000D+00  0.000000D+00  0.000000D+00
     28   0.000000D+00  0.000000D+00  0.000000D+00  0.000000D+00  0.000000D+00
     29   0.000000D+00  0.000000D+00  0.000000D+00  0.000000D+00  0.000000D+00
     30   0.000000D+00  0.000000D+00  0.000000D+00  0.000000D+00  0.000000D+00
     31   0.000000D+00  0.000000D+00  0.000000D+00  0.000000D+00  0.000000D+00
     32   0.000000D+00  0.000000D+00  0.000000D+00  0.000000D+00  0.000000D+00
                21            22            23            24            25 
      1  -0.203166D+01 -0.203153D+01 -0.203153D+01 -0.203153D+01 -0.201961D+01
      2   0.000000D+00  0.000000D+00  0.000000D+00  0.000000D+00  0.000000D+00
      3   0.000000D+00  0.000000D+00  0.000000D+00  0.000000D+00  0.000000D+00
      4   0.000000D+00  0.000000D+00  0.000000D+00  0.000000D+00  0.000000D+00
      5   0.000000D+00  0.000000D+00  0.000000D+00  0.000000D+00  0.000000D+00
      6   0.000000D+00  0.000000D+00  0.000000D+00  0.000000D+00  0.000000D+00
      7   0.000000D+00  0.000000D+00  0.000000D+00  0.000000D+00  0.000000D+00
      8   0.000000D+00  0.000000D+00  0.000000D+00  0.000000D+00  0.000000D+00
      9   0.000000D+00  0.000000D+00  0.000000D+00  0.000000D+00  0.000000D+00
     10   0.000000D+00  0.000000D+00  0.000000D+00  0.000000D+00  0.000000D+00
     11   0.000000D+00  0.000000D+00  0.000000D+00  0.000000D+00  0.000000D+00
     12   0.000000D+00  0.000000D+00  0.000000D+00  0.000000D+00  0.000000D+00
     13   0.000000D+00  0.000000D+00  0.000000D+00  0.000000D+00  0.000000D+00
     14   0.000000D+00  0.000000D+00  0.000000D+00  0.000000D+00  0.000000D+00
     15   0.000000D+00  0.000000D+00  0.000000D+00  0.000000D+00  0.000000D+00
     16   0.000000D+00  0.000000D+00  0.000000D+00  0.000000D+00  0.000000D+00
     17  -0.203166D+01 -0.203153D+01 -0.203153D+01 -0.203153D+01 -0.201961D+01
     18   0.000000D+00  0.000000D+00  0.000000D+00  0.000000D+00  0.000000D+00
     19   0.000000D+00  0.000000D+00  0.000000D+00  0.000000D+00  0.000000D+00
     20   0.000000D+00  0.000000D+00  0.000000D+00  0.000000D+00  0.000000D+00
     21   0.000000D+00  0.000000D+00  0.000000D+00  0.000000D+00  0.000000D+00
     22   0.000000D+00  0.000000D+00  0.000000D+00  0.000000D+00  0.000000D+00
     23   0.000000D+00  0.000000D+00  0.000000D+00  0.000000D+00  0.000000D+00
     24   0.000000D+00  0.000000D+00  0.000000D+00  0.000000D+00  0.000000D+00
     25   0.000000D+00  0.000000D+00  0.000000D+00  0.000000D+00  0.000000D+00
     26   0.000000D+00  0.000000D+00  0.000000D+00  0.000000D+00  0.000000D+00
     27   0.000000D+00  0.000000D+00  0.000000D+00  0.000000D+00  0.000000D+00
     28   0.000000D+00  0.000000D+00  0.000000D+00  0.000000D+00  0.000000D+00
     29   0.000000D+00  0.000000D+00  0.000000D+00  0.000000D+00  0.000000D+00
     30   0.000000D+00  0.000000D+00  0.000000D+00  0.000000D+00  0.000000D+00
     31   0.000000D+00  0.000000D+00  0.000000D+00  0.000000D+00  0.000000D+00
     32   0.000000D+00  0.000000D+00  0.000000D+00  0.000000D+00  0.000000D+00
                26 
      1  -0.200984D+01
      2   0.000000D+00
      3   0.000000D+00
      4   0.000000D+00
      5   0.000000D+00
      6   0.000000D+00
      7   0.000000D+00
      8   0.000000D+00
      9   0.000000D+00
     10   0.000000D+00
     11   0.000000D+00
     12   0.000000D+00
     13   0.000000D+00
     14   0.000000D+00
     15   0.000000D+00
     16   0.000000D+00
     17  -0.200984D+01
     18   0.000000D+00
     19   0.000000D+00
     20   0.000000D+00
     21   0.000000D+00
     22   0.000000D+00
     23   0.000000D+00
     24   0.000000D+00
     25   0.000000D+00
     26   0.000000D+00
     27   0.000000D+00
     28   0.000000D+00
     29   0.000000D+00
     30   0.000000D+00
     31   0.000000D+00
     32   0.000000D+00

 Test job not archived.
 1|1|UNPC-INOHAAN|SP|REOMCCSD-FC|Gen|He1|SATO4|10-Jun-2024|0||#p EOMCCS
 D(NStates=26,root=1)/gen int=(ultrafine) IOp(9/6=5000000) IOp(9/19=1)|
 |Title Card Required||0,1|He,0,0.,0.,0.||Version=EM64W-G16RevB.01|Stat
 e=1-A1G|HF=-2.8616733|MP2=-2.8981435|MP3=-2.9022521|RMSD=3.010e-009|PG
 =OH [O(He1)]||@


 QUHEN THE CAUSS IS TAKEN AWAY THE EFFECT WANISHETH.
 -- PROVERBS AND REASONS OF THE YEAR 1585
           AS REPRINTED IN PAISLEY MAGAZINE 1828.
 Job cpu time:       0 days  0 hours  3 minutes  7.0 seconds.
 Elapsed time:       0 days  0 hours  3 minutes  2.8 seconds.
 File lengths (MBytes):  RWF=    120 Int=      0 D2E=      0 Chk=     24 Scr=      1
 Normal termination of Gaussian 16 at Mon Jun 10 13:58:39 2024.
