 Entering Link 1 = C:\G16W\l1.exe PID=     20440.
  
 Copyright (c) 1988-2017, Gaussian, Inc.  All Rights Reserved.
  
 This is part of the Gaussian(R) 16 program.  It is based on
 the Gaussian(R) 09 system (copyright 2009, Gaussian, Inc.),
 the Gaussian(R) 03 system (copyright 2003, Gaussian, Inc.),
 the Gaussian(R) 98 system (copyright 1998, Gaussian, Inc.),
 the Gaussian(R) 94 system (copyright 1995, Gaussian, Inc.),
 the Gaussian 92(TM) system (copyright 1992, Gaussian, Inc.),
 the Gaussian 90(TM) system (copyright 1990, Gaussian, Inc.),
 the Gaussian 88(TM) system (copyright 1988, Gaussian, Inc.),
 the Gaussian 86(TM) system (copyright 1986, Carnegie Mellon
 University), and the Gaussian 82(TM) system (copyright 1983,
 Carnegie Mellon University). Gaussian is a federally registered
 trademark of Gaussian, Inc.
  
 This software contains proprietary and confidential information,
 including trade secrets, belonging to Gaussian, Inc.
  
 This software is provided under written license and may be
 used, copied, transmitted, or stored only in accord with that
 written license.
  
 The following legend is applicable only to US Government
 contracts under FAR:
  
                    RESTRICTED RIGHTS LEGEND
  
 Use, reproduction and disclosure by the US Government is
 subject to restrictions as set forth in subparagraphs (a)
 and (c) of the Commercial Computer Software - Restricted
 Rights clause in FAR 52.227-19.
  
 Gaussian, Inc.
 340 Quinnipiac St., Bldg. 40, Wallingford CT 06492
  
  
 ---------------------------------------------------------------
 Warning -- This program may not be used in any manner that
 competes with the business of Gaussian, Inc. or will provide
 assistance to any competitor of Gaussian, Inc.  The licensee
 of this program is prohibited from giving any competitor of
 Gaussian, Inc. access to this program.  By using this program,
 the user acknowledges that Gaussian, Inc. is engaged in the
 business of creating and licensing software in the field of
 computational chemistry and represents and warrants to the
 licensee that it is not a competitor of Gaussian, Inc. and that
 it will not use this program in any manner prohibited above.
 ---------------------------------------------------------------
  

 Cite this work as:
 Gaussian 16, Revision B.01,
 M. J. Frisch, G. W. Trucks, H. B. Schlegel, G. E. Scuseria, 
 M. A. Robb, J. R. Cheeseman, G. Scalmani, V. Barone, 
 G. A. Petersson, H. Nakatsuji, X. Li, M. Caricato, A. V. Marenich, 
 J. Bloino, B. G. Janesko, R. Gomperts, B. Mennucci, H. P. Hratchian, 
 J. V. Ortiz, A. F. Izmaylov, J. L. Sonnenberg, D. Williams-Young, 
 F. Ding, F. Lipparini, F. Egidi, J. Goings, B. Peng, A. Petrone, 
 T. Henderson, D. Ranasinghe, V. G. Zakrzewski, J. Gao, N. Rega, 
 G. Zheng, W. Liang, M. Hada, M. Ehara, K. Toyota, R. Fukuda, 
 J. Hasegawa, M. Ishida, T. Nakajima, Y. Honda, O. Kitao, H. Nakai, 
 T. Vreven, K. Throssell, J. A. Montgomery, Jr., J. E. Peralta, 
 F. Ogliaro, M. J. Bearpark, J. J. Heyd, E. N. Brothers, K. N. Kudin, 
 V. N. Staroverov, T. A. Keith, R. Kobayashi, J. Normand, 
 K. Raghavachari, A. P. Rendell, J. C. Burant, S. S. Iyengar, 
 J. Tomasi, M. Cossi, J. M. Millam, M. Klene, C. Adamo, R. Cammi, 
 J. W. Ochterski, R. L. Martin, K. Morokuma, O. Farkas, 
 J. B. Foresman, and D. J. Fox, Gaussian, Inc., Wallingford CT, 2016.
 
 ******************************************
 Gaussian 16:  EM64W-G16RevB.01 16-Dec-2017
                21-Apr-2023 
 ******************************************
 %nprocshared=4
 Will use up to    4 processors via shared memory.
 %mem=4gb
 %chk=C:\gaussian_data2022\He_triplet.chk
 ----------------------------------------------------------------------
 #p EOMCCSD(NStates=28,root=1,energyonly,NCISSTATE=100)/gen int=(ultraf
 ine) IOp(9/19=1)
 ----------------------------------------------------------------------
 1/38=1,172=1/1;
 2/12=2,17=6,18=5,40=1/2;
 3/5=7,11=9,25=1,30=1,75=-5/1,2,3,8;
 4//1;
 5/5=2,38=5/2;
 8/6=1,10=1,68=111,107=1,108=28/1;
 9/8=1,19=1,41=28,42=1,68=11,104=100/14;
 8/6=4,9=120000,10=92,68=11,107=1,108=28/1,4;
 9/5=7,19=1,41=28,68=11,104=100/13;
 6/7=2,8=2,9=2,10=2/1;
 99/5=1,9=1/99;
 Leave Link    1 at Fri Apr 21 15:04:06 2023, MaxMem=   536870912 cpu:               0.0 elap:               0.1
 (Enter C:\G16W\l101.exe)
 -------------------
 Title Card Required
 -------------------
 Symbolic Z-matrix:
 Charge =  0 Multiplicity = 3
 He                    0.        0.        0. 
 
 ITRead=  0
 MicOpt= -1
 NAtoms=      1 NQM=        1 NQMF=       0 NMMI=      0 NMMIF=      0
                NMic=       0 NMicF=      0.
                    Isotopes and Nuclear Properties:
 (Nuclear quadrupole moments (NQMom) in fm**2, nuclear magnetic moments (NMagM)
  in nuclear magnetons)

  Atom         1
 IAtWgt=           4
 AtmWgt=   4.0026033
 NucSpn=           0
 AtZEff=   0.0000000
 NQMom=    0.0000000
 NMagM=    0.0000000
 AtZNuc=   2.0000000
 Leave Link  101 at Fri Apr 21 15:04:06 2023, MaxMem=   536870912 cpu:               0.0 elap:               0.1
 (Enter C:\G16W\l202.exe)
                          Input orientation:                          
 ---------------------------------------------------------------------
 Center     Atomic      Atomic             Coordinates (Angstroms)
 Number     Number       Type             X           Y           Z
 ---------------------------------------------------------------------
      1          2           0        0.000000    0.000000    0.000000
 ---------------------------------------------------------------------
 Stoichiometry    He(3)
 Framework group  OH[O(He)]
 Deg. of freedom     0
 Full point group                 OH      NOp  48
 Largest Abelian subgroup         D2H     NOp   8
 Largest concise Abelian subgroup C1      NOp   1
                         Standard orientation:                         
 ---------------------------------------------------------------------
 Center     Atomic      Atomic             Coordinates (Angstroms)
 Number     Number       Type             X           Y           Z
 ---------------------------------------------------------------------
      1          2           0        0.000000    0.000000    0.000000
 ---------------------------------------------------------------------
 Leave Link  202 at Fri Apr 21 15:04:06 2023, MaxMem=   536870912 cpu:               0.0 elap:               0.0
 (Enter C:\G16W\l301.exe)
 General basis read from cards:  (5D, 7F)
 Centers:       1
 S 1 1.00
     Exponent=  5.4370000000D+00 Coefficients=  1.0000000000D+00
 S 1 1.00
     Exponent=  2.0880000000D+00 Coefficients=  1.0000000000D+00
 S 1 1.00
     Exponent=  8.2970000000D-01 Coefficients=  1.0000000000D+00
 S 10 1.00
     Exponent=  4.7850000000D+03 Coefficients=  6.0000000000D-07
     Exponent=  7.1700000000D+02 Coefficients=  4.7000000000D-06
     Exponent=  1.6320000000D+02 Coefficients=  2.4400000000D-05
     Exponent=  4.6260000000D+01 Coefficients=  1.0120000000D-04
     Exponent=  1.5100000000D+01 Coefficients=  3.4860000000D-04
     Exponent=  5.4370000000D+00 Coefficients=  9.8410000000D-04
     Exponent=  2.0880000000D+00 Coefficients=  2.1631000000D-03
     Exponent=  8.2970000000D-01 Coefficients=  3.4905000000D-03
     Exponent=  3.3660000000D-01 Coefficients=  3.4660000000D-03
     Exponent=  1.3690000000D-01 Coefficients=  1.1519000000D-03
 S 1 1.00
     Exponent=  3.3660000000D-01 Coefficients=  1.0000000000D+00
 S 1 1.00
     Exponent=  1.3690000000D-01 Coefficients=  1.0000000000D+00
 S 1 1.00
     Exponent=  4.4730000000D-02 Coefficients=  1.0000000000D+00
 S 1 1.00
     Exponent=  1.4910000000D-02 Coefficients=  1.0000000000D+00
 S 1 1.00
     Exponent=  4.9700000000D-03 Coefficients=  1.0000000000D+00
 S 1 1.00
     Exponent=  1.6600000000D-03 Coefficients=  1.0000000000D+00
 S 1 1.00
     Exponent=  5.3000000000D-04 Coefficients=  1.0000000000D+00
 P 1 1.00
     Exponent=  1.6104000000D+01 Coefficients=  1.0000000000D+00
 P 1 1.00
     Exponent=  6.3420000000D+00 Coefficients=  1.0000000000D+00
 P 1 1.00
     Exponent=  2.4980000000D+00 Coefficients=  1.0000000000D+00
 P 1 1.00
     Exponent=  9.8400000000D-01 Coefficients=  1.0000000000D+00
 P 1 1.00
     Exponent=  3.8700000000D-01 Coefficients=  1.0000000000D+00
 P 1 1.00
     Exponent=  1.2800000000D-01 Coefficients=  1.0000000000D+00
 P 1 1.00
     Exponent=  4.2700000000D-02 Coefficients=  1.0000000000D+00
 P 1 1.00
     Exponent=  1.4200000000D-02 Coefficients=  1.0000000000D+00
 P 1 1.00
     Exponent=  4.7000000000D-03 Coefficients=  1.0000000000D+00
 P 1 1.00
     Exponent=  1.6000000000D-03 Coefficients=  1.0000000000D+00
 D 1 1.00
     Exponent=  1.2498000000D+01 Coefficients=  1.0000000000D+00
 D 1 1.00
     Exponent=  4.8860000000D+00 Coefficients=  1.0000000000D+00
 D 1 1.00
     Exponent=  1.9100000000D+00 Coefficients=  1.0000000000D+00
 D 1 1.00
     Exponent=  7.4700000000D-01 Coefficients=  1.0000000000D+00
 D 1 1.00
     Exponent=  2.4100000000D-01 Coefficients=  1.0000000000D+00
 D 1 1.00
     Exponent=  8.0300000000D-02 Coefficients=  1.0000000000D+00
 D 1 1.00
     Exponent=  2.6700000000D-02 Coefficients=  1.0000000000D+00
 D 1 1.00
     Exponent=  8.9000000000D-03 Coefficients=  1.0000000000D+00
 D 1 1.00
     Exponent=  3.0000000000D-03 Coefficients=  1.0000000000D+00
 F 1 1.00
     Exponent=  9.2760000000D+00 Coefficients=  1.0000000000D+00
 F 1 1.00
     Exponent=  3.4620000000D+00 Coefficients=  1.0000000000D+00
 F 1 1.00
     Exponent=  1.2920000000D+00 Coefficients=  1.0000000000D+00
 F 1 1.00
     Exponent=  4.0700000000D-01 Coefficients=  1.0000000000D+00
 F 1 1.00
     Exponent=  1.3570000000D-01 Coefficients=  1.0000000000D+00
 F 1 1.00
     Exponent=  4.5200000000D-02 Coefficients=  1.0000000000D+00
 F 1 1.00
     Exponent=  1.5100000000D-02 Coefficients=  1.0000000000D+00
 F 1 1.00
     Exponent=  5.0000000000D-03 Coefficients=  1.0000000000D+00
 ****
 Ernie: Thresh=  0.10000D-02 Tol=  0.10000D-05 Strict=F.
 There are    38 symmetry adapted cartesian basis functions of AG  symmetry.
 There are     9 symmetry adapted cartesian basis functions of B1G symmetry.
 There are     9 symmetry adapted cartesian basis functions of B2G symmetry.
 There are     9 symmetry adapted cartesian basis functions of B3G symmetry.
 There are     8 symmetry adapted cartesian basis functions of AU  symmetry.
 There are    34 symmetry adapted cartesian basis functions of B1U symmetry.
 There are    34 symmetry adapted cartesian basis functions of B2U symmetry.
 There are    34 symmetry adapted cartesian basis functions of B3U symmetry.
 There are    29 symmetry adapted basis functions of AG  symmetry.
 There are     9 symmetry adapted basis functions of B1G symmetry.
 There are     9 symmetry adapted basis functions of B2G symmetry.
 There are     9 symmetry adapted basis functions of B3G symmetry.
 There are     8 symmetry adapted basis functions of AU  symmetry.
 There are    26 symmetry adapted basis functions of B1U symmetry.
 There are    26 symmetry adapted basis functions of B2U symmetry.
 There are    26 symmetry adapted basis functions of B3U symmetry.
   142 basis functions,   184 primitive gaussians,   175 cartesian basis functions
     2 alpha electrons        0 beta electrons
       nuclear repulsion energy         0.0000000000 Hartrees.
 IExCor=    0 DFT=F Ex=HF Corr=None ExCW=0 ScaHFX=  1.000000
 ScaDFX=  1.000000  1.000000  1.000000  1.000000 ScalE2=  1.000000  1.000000
 IRadAn=      5 IRanWt=     -1 IRanGd=            0 ICorTp=0 IEmpDi=  4
 NAtoms=    1 NActive=    1 NUniq=    1 SFac= 1.00D+00 NAtFMM=   60 NAOKFM=F Big=F
 Integral buffers will be    131072 words long.
 Raffenetti 2 integral format.
 Two-electron integral symmetry is turned on.
 Leave Link  301 at Fri Apr 21 15:04:06 2023, MaxMem=   536870912 cpu:               0.0 elap:               0.1
 (Enter C:\G16W\l302.exe)
 NPDir=0 NMtPBC=     1 NCelOv=     1 NCel=       1 NClECP=     1 NCelD=      1
         NCelK=      1 NCelE2=     1 NClLst=     1 CellRange=     0.0.
 One-electron integrals computed using PRISM.
 One-electron integral symmetry used in STVInt
 NBasis=   142 RedAO= T EigKep=  3.87D-04  NBF=    29     9     9     9     8    26    26    26
 NBsUse=   142 1.00D-06 EigRej= -1.00D+00 NBFU=    29     9     9     9     8    26    26    26
 Leave Link  302 at Fri Apr 21 15:04:06 2023, MaxMem=   536870912 cpu:               0.0 elap:               0.2
 (Enter C:\G16W\l303.exe)
 DipDrv:  MaxL=1.
 Leave Link  303 at Fri Apr 21 15:04:06 2023, MaxMem=   536870912 cpu:               0.0 elap:               0.1
 (Enter C:\G16W\l308.exe)
 Leave Link  308 at Fri Apr 21 15:04:07 2023, MaxMem=   536870912 cpu:               0.0 elap:               0.1
 (Enter C:\G16W\l401.exe)
 ExpMin= 5.30D-04 ExpMax= 4.79D+03 ExpMxC= 4.63D+01 IAcc=3 IRadAn=         5 AccDes= 0.00D+00
 Harris functional with IExCor=  205 and IRadAn=       5 diagonalized for initial guess.
 HarFok:  IExCor=  205 AccDes= 0.00D+00 IRadAn=         5 IDoV= 1 UseB2=F ITyADJ=14
 ICtDFT=  3500011 ScaDFX=  1.000000  1.000000  1.000000  1.000000
 FoFCou: FMM=F IPFlag=           0 FMFlag=      100000 FMFlg1=           0
         NFxFlg=           0 DoJE=T BraDBF=F KetDBF=T FulRan=T
         wScrn=  0.000000 ICntrl=       500 IOpCl=  0 I1Cent=   200000004 NGrid=           0
         NMat0=    1 NMatS0=      1 NMatT0=    0 NMatD0=    1 NMtDS0=    0 NMtDT0=    0
 Petite list used in FoFCou.
 Harris En= -2.29911253965635    
 JPrj=0 DoOrth=F DoCkMO=F.
 Initial guess orbital symmetries:
 Alpha Orbitals:
       Occupied  (A1G) (A1G)
       Virtual   (A1G) (T1U) (T1U) (T1U) (T2G) (T2G) (T2G) (EG)
                 (EG) (A1G) (T1U) (T1U) (T1U) (A2U) (?A) (?A) (?A)
                 (?A) (?A) (?A) (A1G) (T2G) (T2G) (T2G) (EG) (EG)
                 (T1U) (T1U) (T1U) (?A) (?A) (?A) (?A) (A2U) (?A)
                 (?A) (T1U) (T1U) (T1U) (T2G) (T2G) (T2G) (EG)
                 (EG) (A1G) (?A) (?A) (A2U) (?A) (?A) (?A) (?A)
                 (T2G) (T2G) (T2G) (EG) (EG) (T1U) (T1U) (T1U)
                 (A1G) (A2U) (T2U) (T2U) (T2U) (T1U) (T1U) (T1U)
                 (T2G) (T2G) (T2G) (EG) (EG) (T1U) (T1U) (T1U)
                 (A1G) (T2U) (T2U) (T2U) (A2U) (T1U) (T1U) (T1U)
                 (T2G) (T2G) (T2G) (EG) (EG) (T1U) (T1U) (T1U)
                 (A1G) (T2U) (T2U) (T2U) (A2U) (T1U) (T1U) (T1U)
                 (T2G) (T2G) (T2G) (EG) (EG) (T1U) (T1U) (T1U)
                 (A1G) (T2U) (T2U) (T2U) (A2U) (T1U) (T1U) (T1U)
                 (T2G) (T2G) (T2G) (EG) (EG) (T1U) (T1U) (T1U)
                 (T2U) (T2U) (T2U) (A2U) (T1U) (T1U) (T1U) (A1G)
                 (T2G) (T2G) (T2G) (EG) (EG) (T1U) (T1U) (T1U)
 Beta  Orbitals:
       Virtual   (A1G) (A1G) (A1G) (T1U) (T1U) (T1U) (T2G) (T2G)
                 (T2G) (EG) (EG) (A1G) (T1U) (T1U) (T1U) (A2U)
                 (?A) (?A) (?A) (?A) (?A) (?A) (A1G) (T2G) (T2G)
                 (T2G) (EG) (EG) (T1U) (T1U) (T1U) (?A) (?A) (?A)
                 (?A) (A2U) (?A) (?A) (T1U) (T1U) (T1U) (T2G) (T2G)
                 (T2G) (EG) (EG) (A1G) (?A) (?A) (A2U) (?A) (?A)
                 (?A) (?A) (T2G) (T2G) (T2G) (EG) (EG) (T1U) (T1U)
                 (T1U) (A1G) (A2U) (T2U) (T2U) (T2U) (T1U) (T1U)
                 (T1U) (T2G) (T2G) (T2G) (EG) (EG) (T1U) (T1U)
                 (T1U) (A1G) (T2U) (T2U) (T2U) (A2U) (T1U) (T1U)
                 (T1U) (T2G) (T2G) (T2G) (EG) (EG) (T1U) (T1U)
                 (T1U) (A1G) (T2U) (T2U) (T2U) (A2U) (T1U) (T1U)
                 (T1U) (T2G) (T2G) (T2G) (EG) (EG) (T1U) (T1U)
                 (T1U) (A1G) (T2U) (T2U) (T2U) (A2U) (T1U) (T1U)
                 (T1U) (T2G) (T2G) (T2G) (EG) (EG) (T1U) (T1U)
                 (T1U) (T2U) (T2U) (T2U) (A2U) (T1U) (T1U) (T1U)
                 (A1G) (T2G) (T2G) (T2G) (EG) (EG) (T1U) (T1U)
                 (T1U)
 The electronic state of the initial guess is 3-A1G.
 Initial guess <Sx>= 0.0000 <Sy>= 0.0000 <Sz>= 1.0000 <S**2>= 2.0000 S= 1.0000
 Leave Link  401 at Fri Apr 21 15:04:07 2023, MaxMem=   536870912 cpu:               0.0 elap:               0.4
 (Enter C:\G16W\l502.exe)
 Keep R1 and R2 ints in memory in symmetry-blocked form, NReq=58170175.
 FoFCou: FMM=F IPFlag=           0 FMFlag=           0 FMFlg1=           0
         NFxFlg=           0 DoJE=F BraDBF=F KetDBF=F FulRan=T
         wScrn=  0.000000 ICntrl=       600 IOpCl=  0 I1Cent=           0 NGrid=           0
         NMat0=    1 NMatS0=  10153 NMatT0=    0 NMatD0=    1 NMtDS0=    0 NMtDT0=    0
 Petite list used in FoFCou.
 UHF open shell SCF:
 Using DIIS extrapolation, IDIIS=  1040.
 NGot=   536870912 LenX=   523600900 LenY=   523569834
 Requested convergence on RMS density matrix=1.00D-08 within 128 cycles.
 Requested convergence on MAX density matrix=1.00D-06.
 Requested convergence on             energy=1.00D-06.
 No special actions if energy rises.

 Cycle   1  Pass 1  IDiag  1:
 E= -1.95953290376081    
 DIIS: error= 1.27D-01 at cycle   1 NSaved=   1.
 NSaved= 1 IEnMin= 1 EnMin= -1.95953290376081     IErMin= 1 ErrMin= 1.27D-01
 ErrMax= 1.27D-01  0.00D+00 EMaxC= 1.00D-01 BMatC= 2.62D-01 BMatP= 2.62D-01
 IDIUse=3 WtCom= 0.00D+00 WtEn= 1.00D+00
 Coeff-Com:  0.100D+01
 Coeff-En:   0.100D+01
 Coeff:      0.100D+01
 Gap=    -0.001 Goal=   None    Shift=    0.000
 GapD=   -0.001 DampG=0.250 DampE=0.250 DampFc=0.2500 IDamp=-1.
 Damping current iteration by 2.50D-01
 RMSDP=9.04D-03 MaxDP=1.41D+00              OVMax= 9.74D-01

 Cycle   2  Pass 1  IDiag  1:
 E= -2.00445848442300     Delta-E=       -0.044925580662 Rises=F Damp=T
 DIIS: error= 1.00D-01 at cycle   2 NSaved=   2.
 NSaved= 2 IEnMin= 2 EnMin= -2.00445848442300     IErMin= 2 ErrMin= 1.00D-01
 ErrMax= 1.00D-01  0.00D+00 EMaxC= 1.00D-01 BMatC= 1.68D-01 BMatP= 2.62D-01
 IDIUse=3 WtCom= 0.00D+00 WtEn= 1.00D+00
 Coeff-Com: -0.395D+01 0.495D+01
 Coeff-En:   0.000D+00 0.100D+01
 Coeff:      0.000D+00 0.100D+01
 Gap=     0.083 Goal=   None    Shift=    0.000
 RMSDP=6.84D-03 MaxDP=1.06D+00 DE=-4.49D-02 OVMax= 1.25D-02

 Cycle   3  Pass 1  IDiag  1:
 E= -2.17183097188754     Delta-E=       -0.167372487465 Rises=F Damp=F
 DIIS: error= 2.49D-02 at cycle   3 NSaved=   3.
 NSaved= 3 IEnMin= 3 EnMin= -2.17183097188754     IErMin= 3 ErrMin= 2.49D-02
 ErrMax= 2.49D-02  0.00D+00 EMaxC= 1.00D-01 BMatC= 9.50D-03 BMatP= 1.68D-01
 IDIUse=3 WtCom= 7.51D-01 WtEn= 2.49D-01
 Coeff-Com:  0.343D+00-0.680D+00 0.134D+01
 Coeff-En:   0.000D+00 0.000D+00 0.100D+01
 Coeff:      0.257D+00-0.511D+00 0.125D+01
 Gap=     0.195 Goal=   None    Shift=    0.000
 RMSDP=6.41D-04 MaxDP=7.21D-02 DE=-1.67D-01 OVMax= 3.10D-02

 Cycle   4  Pass 1  IDiag  1:
 E= -2.17420097925661     Delta-E=       -0.002370007369 Rises=F Damp=F
 DIIS: error= 2.16D-03 at cycle   4 NSaved=   4.
 NSaved= 4 IEnMin= 4 EnMin= -2.17420097925661     IErMin= 4 ErrMin= 2.16D-03
 ErrMax= 2.16D-03  0.00D+00 EMaxC= 1.00D-01 BMatC= 8.51D-05 BMatP= 9.50D-03
 IDIUse=3 WtCom= 9.78D-01 WtEn= 2.16D-02
 Coeff-Com:  0.125D+00-0.162D+00-0.641D-01 0.110D+01
 Coeff-En:   0.000D+00 0.000D+00 0.000D+00 0.100D+01
 Coeff:      0.122D+00-0.159D+00-0.627D-01 0.110D+01
 Gap=     0.175 Goal=   None    Shift=    0.000
 RMSDP=9.50D-05 MaxDP=7.79D-03 DE=-2.37D-03 OVMax= 5.77D-03

 Cycle   5  Pass 1  IDiag  1:
 E= -2.17422494030079     Delta-E=       -0.000023961044 Rises=F Damp=F
 DIIS: error= 8.89D-05 at cycle   5 NSaved=   5.
 NSaved= 5 IEnMin= 5 EnMin= -2.17422494030079     IErMin= 5 ErrMin= 8.89D-05
 ErrMax= 8.89D-05  0.00D+00 EMaxC= 1.00D-01 BMatC= 2.46D-07 BMatP= 8.51D-05
 IDIUse=1 WtCom= 1.00D+00 WtEn= 0.00D+00
 Coeff-Com: -0.723D-04 0.109D-03 0.140D-01-0.168D+00 0.115D+01
 Coeff:     -0.723D-04 0.109D-03 0.140D-01-0.168D+00 0.115D+01
 Gap=     0.175 Goal=   None    Shift=    0.000
 RMSDP=2.16D-05 MaxDP=1.99D-03 DE=-2.40D-05 OVMax= 1.50D-03

 Cycle   6  Pass 1  IDiag  1:
 E= -2.17422545518600     Delta-E=       -0.000000514885 Rises=F Damp=F
 DIIS: error= 2.04D-05 at cycle   6 NSaved=   6.
 NSaved= 6 IEnMin= 6 EnMin= -2.17422545518600     IErMin= 6 ErrMin= 2.04D-05
 ErrMax= 2.04D-05  0.00D+00 EMaxC= 1.00D-01 BMatC= 1.25D-08 BMatP= 2.46D-07
 IDIUse=1 WtCom= 1.00D+00 WtEn= 0.00D+00
 Coeff-Com:  0.125D-03-0.165D-03-0.520D-02 0.632D-01-0.505D+00 0.145D+01
 Coeff:      0.125D-03-0.165D-03-0.520D-02 0.632D-01-0.505D+00 0.145D+01
 Gap=     0.175 Goal=   None    Shift=    0.000
 RMSDP=7.63D-06 MaxDP=9.48D-04 DE=-5.15D-07 OVMax= 5.76D-04

 Cycle   7  Pass 1  IDiag  1:
 E= -2.17422550679104     Delta-E=       -0.000000051605 Rises=F Damp=F
 DIIS: error= 4.01D-06 at cycle   7 NSaved=   7.
 NSaved= 7 IEnMin= 7 EnMin= -2.17422550679104     IErMin= 7 ErrMin= 4.01D-06
 ErrMax= 4.01D-06  0.00D+00 EMaxC= 1.00D-01 BMatC= 6.09D-10 BMatP= 1.25D-08
 IDIUse=1 WtCom= 1.00D+00 WtEn= 0.00D+00
 Coeff-Com:  0.156D-03-0.207D-03 0.154D-02-0.182D-01 0.150D+00-0.534D+00
 Coeff-Com:  0.140D+01
 Coeff:      0.156D-03-0.207D-03 0.154D-02-0.182D-01 0.150D+00-0.534D+00
 Coeff:      0.140D+01
 Gap=     0.175 Goal=   None    Shift=    0.000
 RMSDP=1.62D-06 MaxDP=2.68D-04 DE=-5.16D-08 OVMax= 1.19D-04

 Cycle   8  Pass 1  IDiag  1:
 E= -2.17422550917338     Delta-E=       -0.000000002382 Rises=F Damp=F
 DIIS: error= 1.01D-06 at cycle   8 NSaved=   8.
 NSaved= 8 IEnMin= 8 EnMin= -2.17422550917338     IErMin= 8 ErrMin= 1.01D-06
 ErrMax= 1.01D-06  0.00D+00 EMaxC= 1.00D-01 BMatC= 4.92D-11 BMatP= 6.09D-10
 IDIUse=1 WtCom= 1.00D+00 WtEn= 0.00D+00
 Coeff-Com: -0.131D-04 0.165D-04-0.566D-03 0.696D-02-0.580D-01 0.235D+00
 Coeff-Com: -0.849D+00 0.167D+01
 Coeff:     -0.131D-04 0.165D-04-0.566D-03 0.696D-02-0.580D-01 0.235D+00
 Coeff:     -0.849D+00 0.167D+01
 Gap=     0.175 Goal=   None    Shift=    0.000
 RMSDP=6.02D-07 MaxDP=7.04D-05 DE=-2.38D-09 OVMax= 3.32D-05

 Cycle   9  Pass 1  IDiag  1:
 E= -2.17422550932734     Delta-E=       -0.000000000154 Rises=F Damp=F
 DIIS: error= 3.92D-08 at cycle   9 NSaved=   9.
 NSaved= 9 IEnMin= 9 EnMin= -2.17422550932734     IErMin= 9 ErrMin= 3.92D-08
 ErrMax= 3.92D-08  0.00D+00 EMaxC= 1.00D-01 BMatC= 7.13D-14 BMatP= 4.92D-11
 IDIUse=1 WtCom= 1.00D+00 WtEn= 0.00D+00
 Coeff-Com: -0.293D-05 0.383D-05 0.453D-04-0.570D-03 0.467D-02-0.202D-01
 Coeff-Com:  0.825D-01-0.187D+00 0.112D+01
 Coeff:     -0.293D-05 0.383D-05 0.453D-04-0.570D-03 0.467D-02-0.202D-01
 Coeff:      0.825D-01-0.187D+00 0.112D+01
 Gap=     0.175 Goal=   None    Shift=    0.000
 RMSDP=1.16D-08 MaxDP=1.26D-06 DE=-1.54D-10 OVMax= 5.24D-07

 Cycle  10  Pass 1  IDiag  1:
 E= -2.17422550932743     Delta-E=        0.000000000000 Rises=F Damp=F
 DIIS: error= 6.10D-09 at cycle  10 NSaved=  10.
 NSaved=10 IEnMin=10 EnMin= -2.17422550932743     IErMin=10 ErrMin= 6.10D-09
 ErrMax= 6.10D-09  0.00D+00 EMaxC= 1.00D-01 BMatC= 1.50D-15 BMatP= 7.13D-14
 IDIUse=1 WtCom= 1.00D+00 WtEn= 0.00D+00
 Coeff-Com:  0.309D-06-0.406D-06-0.399D-05 0.502D-04-0.399D-03 0.179D-02
 Coeff-Com: -0.833D-02 0.221D-01-0.224D+00 0.121D+01
 Coeff:      0.309D-06-0.406D-06-0.399D-05 0.502D-04-0.399D-03 0.179D-02
 Coeff:     -0.833D-02 0.221D-01-0.224D+00 0.121D+01
 Gap=     0.175 Goal=   None    Shift=    0.000
 RMSDP=4.40D-09 MaxDP=4.98D-07 DE=-8.26D-14 OVMax= 1.28D-07

 SCF Done:  E(UHF) =  -2.17422550933     A.U. after   10 cycles
            NFock= 10  Conv=0.44D-08     -V/T= 2.0000
 <Sx>= 0.0000 <Sy>= 0.0000 <Sz>= 1.0000 <S**2>= 2.0000 S= 1.0000
 <L.S>= 0.000000000000E+00
 KE= 2.174302159649D+00 PE=-4.617520835184D+00 EE= 2.689931662079D-01
 Annihilation of the first spin contaminant:
 S**2 before annihilation     2.0000,   after     2.0000
 Leave Link  502 at Fri Apr 21 15:04:12 2023, MaxMem=   536870912 cpu:               5.0 elap:               4.6
 (Enter C:\G16W\l801.exe)
 Range of M.O.s used for correlation:     1   142
 NBasis=   142 NAE=     2 NBE=     0 NFC=     0 NFV=     0
 NROrb=    142 NOA=     2 NOB=     0 NVA=   140 NVB=   142

 **** Warning!!: The largest alpha MO coefficient is  0.43956117D+02


 **** Warning!!: The largest beta MO coefficient is  0.43956667D+02

 Leave Link  801 at Fri Apr 21 15:04:12 2023, MaxMem=   536870912 cpu:               0.0 elap:               0.1
 (Enter C:\G16W\l914.exe)
 UHF ground state
 Keep R1, R2, and R3 ints in memory in symmetry-blocked form, NReq=58170515.
 FoFCou: FMM=F IPFlag=           0 FMFlag=           0 FMFlg1=           0
         NFxFlg=           0 DoJE=F BraDBF=F KetDBF=F FulRan=T
         wScrn=  0.000000 ICntrl=       600 IOpCl=  0 I1Cent=           0 NGrid=           0
         NMat0=    1 NMatS0=  10153 NMatT0=    0 NMatD0=    1 NMtDS0=    0 NMtDT0=    0
 Petite list used in FoFCou.
 MDV=   536870912 DFT=F DoStab=F Mixed=F DoRPA=F DoScal=F NonHer=F
 Making orbital integer symmetry assigments:
 Orbital symmetries:
 Alpha Orbitals:
       Occupied  (A1G) (A1G)
       Virtual   (A1G) (T1U) (T1U) (T1U) (A1G) (T1U) (T1U) (T1U)
                 (EG) (EG) (T2G) (T2G) (T2G) (A1G) (?A) (?A) (?A)
                 (A2U) (?A) (?A) (?A) (T1U) (T1U) (T1U) (T2G) (T2G)
                 (T2G) (EG) (EG) (?A) (?A) (?A) (?A) (A2U) (?A)
                 (?A) (A1G) (T1U) (T1U) (T1U) (EG) (T2G) (T2G)
                 (T2G) (EG) (?A) (?A) (?A) (?A) (A2U) (?A) (?A)
                 (T2G) (EG) (T2G) (T2G) (EG) (T1U) (T1U) (T1U)
                 (A1G) (?A) (?A) (?A) (?A) (A2U) (?A) (?A) (T2G)
                 (T2G) (T2G) (EG) (EG) (T1U) (T1U) (T1U) (A1G)
                 (?A) (?A) (?A) (?A) (?A) (A2U) (?A) (T2G) (T2G)
                 (T2G) (EG) (EG) (T1U) (T1U) (T1U) (A1G) (A2U)
                 (?A) (?A) (?A) (?A) (?A) (?A) (EG) (T2G) (T2G)
                 (EG) (T2G) (T1U) (T1U) (T1U) (A1G) (?A) (?A) (?A)
                 (?A) (?A) (?A) (A2U) (EG) (EG) (T2G) (T2G) (T2G)
                 (T1U) (T1U) (T1U) (?A) (?A) (A2U) (?A) (?A) (?A)
                 (?A) (A1G) (EG) (EG) (T2G) (T2G) (T2G) (T1U) (T1U)
                 (T1U)
 Beta  Orbitals:
       Virtual   (A1G) (A1G) (A1G) (T1U) (T1U) (T1U) (EG) (EG)
                 (T2G) (T2G) (T2G) (A1G) (T1U) (T1U) (T1U) (?A)
                 (?A) (?A) (A2U) (?A) (?A) (?A) (EG) (T2G) (T2G)
                 (T2G) (EG) (A1G) (T1U) (T1U) (T1U) (?A) (?A) (?A)
                 (?A) (A2U) (?A) (?A) (T2G) (T2G) (T2G) (EG) (EG)
                 (T1U) (T1U) (T1U) (A1G) (?A) (?A) (?A) (A2U) (?A)
                 (?A) (?A) (T2G) (T2G) (T2G) (EG) (EG) (T1U) (T1U)
                 (T1U) (A1G) (?A) (A2U) (?A) (?A) (?A) (?A) (?A)
                 (T2G) (T2G) (T2G) (EG) (EG) (T1U) (T1U) (T1U)
                 (A1G) (?A) (?A) (?A) (?A) (A2U) (?A) (?A) (T2G)
                 (T2G) (T2G) (EG) (EG) (T1U) (T1U) (T1U) (A1G)
                 (?A) (?A) (?A) (?A) (A2U) (?A) (?A) (EG) (T2G)
                 (T2G) (EG) (T2G) (T1U) (T1U) (T1U) (A1G) (?A)
                 (?A) (A2U) (?A) (?A) (?A) (?A) (EG) (T2G) (EG)
                 (T2G) (T2G) (T1U) (T1U) (T1U) (?A) (?A) (?A) (?A)
                 (A2U) (?A) (?A) (A1G) (EG) (EG) (T2G) (T2G) (T2G)
                 (T1U) (T1U) (T1U)
   224 initial guesses have been made.
 Convergence on wavefunction:    0.001000000000000
 Davidson Disk Diagonalization:  ConvIn= 1.00D-03 SkipCon=T Conv= 1.00D-03.
 Max sub-space:   560 roots to seek:   224 dimension of matrix:          280
 Iteration     1 Dimension   224 NMult     0 NNew    224
 CISAX will form   224 AO SS matrices at one time.
 NMat=   224 NSing=   224 JSym2X= 2.
 New state      5 was old state      7
 New state      7 was old state      5
 New state      9 was old state     12
 New state     10 was old state      9
 New state     11 was old state     10
 New state     12 was old state     11
 New state     14 was old state     16
 New state     16 was old state     14
 New state     17 was old state     23
 New state     18 was old state     24
 New state     19 was old state     27
 New state     20 was old state     25
 New state     21 was old state     26
 New state     22 was old state     28
 New state     23 was old state     22
 New state     24 was old state     21
 New state     25 was old state     17
 New state     26 was old state     18
 New state     27 was old state     19
 New state     28 was old state     20
 New state     34 was old state     39
 New state     35 was old state     42
 New state     36 was old state     40
 New state     37 was old state     44
 New state     38 was old state     41
 New state     39 was old state     45
 New state     40 was old state     43
 New state     41 was old state     34
 New state     42 was old state     38
 New state     43 was old state     36
 New state     44 was old state     35
 New state     45 was old state     37
 New state     46 was old state     51
 New state     47 was old state     54
 New state     48 was old state     53
 New state     49 was old state     52
 New state     50 was old state     55
 New state     51 was old state     49
 New state     52 was old state     50
 New state     53 was old state     47
 New state     54 was old state     46
 New state     55 was old state     48
 New state     56 was old state     59
 New state     57 was old state     58
 New state     58 was old state     60
 New state     59 was old state     57
 New state     60 was old state     56
 New state     62 was old state     68
 New state     63 was old state     67
 New state     64 was old state     63
 New state     65 was old state     66
 New state     66 was old state     64
 New state     67 was old state     65
 New state     68 was old state     62
 New state     70 was old state     71
 New state     71 was old state     72
 New state     72 was old state     70
 New state     75 was old state     76
 New state     76 was old state     75
 New state     78 was old state     79
 New state     79 was old state     78
 New state     82 was old state     84
 New state     83 was old state     82
 New state     84 was old state     83
 New state     86 was old state     89
 New state     87 was old state     88
 New state     88 was old state     86
 New state     89 was old state     87
 New state     91 was old state     93
 New state     93 was old state     91
 New state     95 was old state     97
 New state     97 was old state     95
 New state     99 was old state    105
 New state    100 was old state    104
 New state    101 was old state    103
 New state    103 was old state    101
 New state    104 was old state    100
 New state    105 was old state     99
 New state    110 was old state    122
 New state    111 was old state    118
 New state    112 was old state    121
 New state    113 was old state    119
 New state    114 was old state    120
 New state    115 was old state    117
 New state    116 was old state    123
 New state    117 was old state    128
 New state    118 was old state    126
 New state    119 was old state    125
 New state    120 was old state    129
 No map to state    121
 New state    122 was old state    127
 New state    123 was old state    130
 New state    124 was old state    131
 New state    125 was old state    132
 New state    126 was old state    138
 New state    127 was old state    139
 New state    128 was old state    136
 New state    129 was old state    135
 New state    130 was old state    137
 New state    131 was old state    133
 New state    132 was old state    134
 New state    133 was old state    143
 New state    134 was old state    144
 New state    135 was old state    140
 New state    136 was old state    141
 New state    137 was old state    142
 New state    138 was old state    110
 New state    139 was old state    113
 New state    140 was old state    114
 New state    141 was old state    116
 New state    142 was old state    115
 New state    143 was old state    112
 New state    144 was old state    111
 New state    146 was old state    150
 New state    147 was old state    151
 New state    148 was old state    152
 New state    149 was old state    147
 New state    150 was old state    149
 New state    151 was old state    148
 New state    152 was old state    146
 New state    153 was old state    159
 New state    154 was old state    158
 New state    155 was old state    160
 New state    157 was old state    153
 New state    158 was old state    155
 New state    159 was old state    154
 New state    160 was old state    157
 New state    161 was old state    163
 New state    163 was old state    164
 New state    164 was old state    161
 New state    166 was old state    169
 New state    167 was old state    168
 New state    168 was old state    166
 New state    169 was old state    167
 New state    170 was old state    176
 New state    171 was old state    170
 New state    172 was old state    174
 New state    173 was old state    175
 New state    174 was old state    173
 New state    175 was old state    172
 New state    176 was old state    171
 New state    177 was old state    180
 New state    180 was old state    181
 New state    181 was old state    177
 New state    186 was old state    193
 New state    187 was old state    186
 New state    188 was old state    192
 New state    190 was old state    191
 New state    191 was old state    187
 New state    192 was old state    190
 New state    193 was old state    188
 New state    195 was old state    199
 New state    196 was old state    197
 New state    197 was old state    200
 New state    199 was old state    195
 New state    200 was old state    196
 New state    202 was old state    203
 New state    203 was old state    204
 New state    204 was old state    202
 New state    206 was old state    207
 New state    207 was old state    206
 New state    210 was old state    211
 New state    211 was old state    210
 New state    214 was old state    215
 New state    215 was old state    214
 Excitation Energies [eV] at current iteration:
 Root      1 :     1.155841246168817
 Root      2 :     1.155841246168853
 Root      3 :     1.155841246168944
 Root      4 :     2.883485385917398
 Root      5 :     3.177455459948072
 Root      6 :     3.177455459948109
 Root      7 :     3.177455459948211
 Root      8 :     3.231039086450277
 Root      9 :     3.231039086450307
 Root     10 :     3.231039086450356
 Root     11 :     3.231039086450362
 Root     12 :     3.231039086450386
 Root     13 :     3.772012384850929
 Root     14 :     3.886958123764193
 Root     15 :     3.886958123764247
 Root     16 :     3.886958123764362
 Root     17 :     3.894429642748911
 Root     18 :     3.894429642749014
 Root     19 :     3.894429642749038
 Root     20 :     3.894429642749050
 Root     21 :     3.894429642749104
 Root     22 :     3.894429642749110
 Root     23 :     3.894429642749128
 Root     24 :     3.898304367019890
 Root     25 :     3.898304367019902
 Root     26 :     3.898304367019914
 Root     27 :     3.898304367019914
 Root     28 :     3.898304367019992
 Root     29 :     4.185064780115489
 Root     30 :     4.248895860409849
 Root     31 :     4.248895860409868
 Root     32 :     4.248895860410019
 Root     33 :     4.424379705678040
 Root     34 :     4.479511128709036
 Root     35 :     4.479511128709103
 Root     36 :     4.479511128709121
 Root     37 :     4.479511128709121
 Root     38 :     4.479511128709169
 Root     39 :     4.479511128709206
 Root     40 :     4.479511128836181
 Root     41 :     4.489670179766469
 Root     42 :     4.489670179766475
 Root     43 :     4.489670179766511
 Root     44 :     4.489670179766523
 Root     45 :     4.489670179766583
 Root     46 :     6.990677660980247
 Root     47 :     6.990677660980259
 Root     48 :     6.990677660980319
 Root     49 :     6.990677660980319
 Root     50 :     6.990677660980373
 Root     51 :     6.990677660980410
 Root     52 :     6.990677674413195
 Root     53 :     7.628006395589521
 Root     54 :     7.628006395589576
 Root     55 :     7.628006395589697
 Root     56 :     8.040051139414638
 Root     57 :     8.040051139414656
 Root     58 :     8.040051139414674
 Root     59 :     8.040051139414704
 Root     60 :     8.040051139414784
 Root     61 :    10.217910761907400
 Root     62 :    16.606632226998050
 Root     63 :    16.606632226998090
 Root     64 :    16.606632226998110
 Root     65 :    16.606632226998120
 Root     66 :    16.606632226998200
 Root     67 :    16.606632226998220
 Root     68 :    16.606635330392470
 Root     69 :    22.056133351285860
 Root     70 :    22.056133351285930
 Root     71 :    22.056133351285940
 Root     72 :    22.056133351285980
 Root     73 :    22.056133351286350
 Root     74 :    23.219843985360860
 Root     75 :    23.219843985360900
 Root     76 :    23.219843985360990
 Root     77 :    35.969477480943330
 Root     78 :    39.188851584941650
 Root     79 :    39.188851584941700
 Root     80 :    39.188851584941740
 Root     81 :    43.812010849846690
 Root     82 :    44.838708757895270
 Root     83 :    44.838708757895480
 Root     84 :    44.838708757895740
 Root     85 :    45.228186649358510
 Root     86 :    45.228186649358530
 Root     87 :    45.228186649358590
 Root     88 :    45.228186649358630
 Root     89 :    45.228186649358690
 Root     90 :    45.865880594677560
 Root     91 :    45.998989137786750
 Root     92 :    45.998989137786820
 Root     93 :    45.998989137786850
 Root     94 :    46.134394131841740
 Root     95 :    46.134394131841740
 Root     96 :    46.134394131841810
 Root     97 :    46.134394131841810
 Root     98 :    46.134394131841890
 Root     99 :    46.246913273261550
 Root    100 :    46.246913273261580
 Root    101 :    46.246913273261610
 Root    102 :    46.246913273261610
 Root    103 :    46.246913273261630
 Root    104 :    46.246913273261680
 Root    105 :    46.246913273274760
 Root    106 :    46.384369662098490
 Root    107 :    46.440851764240400
 Root    108 :    46.440851764240490
 Root    109 :    46.440851764240510
 Root    110 :    46.594225519340840
 Root    111 :    46.594225519340850
 Root    112 :    46.594225519340890
 Root    113 :    46.594225519340970
 Root    114 :    46.594225519340980
 Root    115 :    46.635719309495440
 Root    116 :    46.805238726301310
 Root    117 :    46.805238726301400
 Root    118 :    46.805238726301430
 Root    119 :    46.805238726301450
 Root    120 :    46.805238726301550
 Root    121 :    46.805238726301670
 Root    122 :    46.805238726402520
 Root    123 :    47.887793428614010
 Root    124 :    47.887793428614270
 Root    125 :    47.887793428614360
 Root    126 :    49.039527708135650
 Root    127 :    49.039527708135670
 Root    128 :    49.039527708135670
 Root    129 :    49.039527708135690
 Root    130 :    49.039527708135710
 Root    131 :    49.039527708135860
 Root    132 :    49.039528556645470
 Root    133 :    49.073970048350810
 Root    134 :    49.073970048350860
 Root    135 :    49.073970048350920
 Root    136 :    49.073970048350950
 Root    137 :    49.073970048351070
 Root    138 :    49.137427052095260
 Root    139 :    49.137427052095310
 Root    140 :    49.137427052095410
 Root    141 :    49.137427052095430
 Root    142 :    49.137427052095590
 Root    143 :    49.137427052095850
 Root    144 :    49.137489960053180
 Root    145 :    49.813464397534610
 Root    146 :    57.388610848828030
 Root    147 :    57.388610848828070
 Root    148 :    57.388610848828090
 Root    149 :    57.388610848828290
 Root    150 :    57.388610848828310
 Root    151 :    57.388610848828310
 Root    152 :    57.388610848850000
 Root    153 :    59.531505209737990
 Root    154 :    59.531505209738070
 Root    155 :    59.531505209738110
 Root    156 :    60.340638769575300
 Root    157 :    60.340638769575340
 Root    158 :    60.340638769575410
 Root    159 :    60.340638769575610
 Root    160 :    60.340638769575710
 Root    161 :    69.149558956822590
 Root    162 :    69.149558956822670
 Root    163 :    69.149558956822870
 Root    164 :    69.149558956822940
 Root    165 :    69.149558956823030
 Root    166 :    71.328549772137660
 Root    167 :    72.725998772372830
 Root    168 :    72.725998772372850
 Root    169 :    72.725998772373020
 Root    170 :    86.254058536769720
 Root    171 :    86.254058536769730
 Root    172 :    86.254058536769830
 Root    173 :    86.254058536769860
 Root    174 :    86.254058536770000
 Root    175 :    86.254058536770340
 Root    176 :    86.254058618875040
 Root    177 :   102.000554749017600
 Root    178 :   102.000554749017700
 Root    179 :   102.000554749017700
 Root    180 :   102.000554749017800
 Root    181 :   102.000554749018300
 Root    182 :   103.743498532858600
 Root    183 :   103.743498532858700
 Root    184 :   103.743498532858800
 Root    185 :   118.375942001005500
 Root    186 :   146.434705558951200
 Root    187 :   156.095275244511100
 Root    188 :   156.095275244511600
 Root    189 :   156.095275244511600
 Root    190 :   156.095275244511600
 Root    191 :   156.095275244511600
 Root    192 :   156.095275244511800
 Root    193 :   156.103570978799200
 Root    194 :   186.110288664334500
 Root    195 :   186.110288664334700
 Root    196 :   186.110288664335000
 Root    197 :   186.110288664335300
 Root    198 :   186.110288664335300
 Root    199 :   186.110288664335500
 Root    200 :   186.110953554033800
 Root    201 :   200.955042751866000
 Root    202 :   200.955042751866200
 Root    203 :   200.955042751866300
 Root    204 :   200.955042751866400
 Root    205 :   200.955042751866600
 Root    206 :   210.464326828885000
 Root    207 :   210.464326828885200
 Root    208 :   210.464326828886300
 Root    209 :   226.808200779983100
 Root    210 :   226.808200779983400
 Root    211 :   226.808200779983400
 Root    212 :   226.808200779983700
 Root    213 :   226.808200779983900
 Root    214 :   234.410284804413800
 Root    215 :   234.410284804413800
 Root    216 :   234.410284804414700
 Root    217 :   367.479883142493200
 Root    218 :   386.040719114381600
 Root    219 :   456.288322100985600
 Root    220 :   456.288322100986100
 Root    221 :   456.288322100987100
 Root    222 :   456.288322100987200
 Root    223 :   456.288322100988800
 Root    224 :   456.288322100991100
 Iteration     2 Dimension   280 NMult   224 NNew     56
 CISAX will form    56 AO SS matrices at one time.
 NMat=    56 NSing=    56 JSym2X= 2.
 Root      1 not converged, maximum delta is    0.018761009700311
 New state      2 was old state      3
 Root      2 not converged, maximum delta is    0.043969398653479
 New state      3 was old state      2
 Root      3 not converged, maximum delta is    0.044498180399182
 Root      4 has converged.
 New state      5 was old state      6
 Root      5 not converged, maximum delta is    0.032354825113428
 New state      6 was old state      5
 Root      6 not converged, maximum delta is    0.045736669681008
 Root      7 not converged, maximum delta is    0.054922623640572
 New state      8 was old state     12
 Root      8 not converged, maximum delta is    0.222323800191268
 New state      9 was old state      8
 Root      9 not converged, maximum delta is    0.580463214333123
 New state     10 was old state     11
 Root     10 not converged, maximum delta is    0.483513734671294
 New state     11 was old state     10
 Root     11 not converged, maximum delta is    0.590393907961318
 New state     12 was old state      9
 Root     12 not converged, maximum delta is    0.219755556972641
 Root     13 has converged.
 New state     14 was old state     16
 Root     14 not converged, maximum delta is    0.265827635846818
 Root     15 not converged, maximum delta is    0.416169189065531
 New state     16 was old state     14
 Root     16 not converged, maximum delta is    0.476075576047607
 New state     17 was old state     22
 Root     17 not converged, maximum delta is    0.135804593218802
 New state     18 was old state     20
 Root     18 not converged, maximum delta is    0.328207959766556
 New state     19 was old state     17
 Root     19 not converged, maximum delta is    0.427044721763890
 New state     20 was old state     23
 Root     20 not converged, maximum delta is    0.598565775612450
 New state     21 was old state     18
 Root     21 not converged, maximum delta is    0.544080926396703
 New state     22 was old state     19
 Root     22 not converged, maximum delta is    0.250493605907492
 New state     23 was old state     21
 Root     23 not converged, maximum delta is    0.433062070347596
 Root     24 not converged, maximum delta is    0.545494661233504
 New state     25 was old state     27
 Root     25 not converged, maximum delta is    0.300934829224312
 Root     26 not converged, maximum delta is    0.514514562522806
 New state     27 was old state     25
 Root     27 not converged, maximum delta is    0.314253363116212
 Root     28 not converged, maximum delta is    0.243104430019025
 Root     29 has converged.
 New state     30 was old state     31
 Root     30 not converged, maximum delta is    0.013192307109690
 New state     31 was old state     30
 Root     31 not converged, maximum delta is    0.042791515748963
 Root     32 not converged, maximum delta is    0.039341967992457
 Root     33 has converged.
 New state     34 was old state     36
 Root     34 not converged, maximum delta is    0.545453193652893
 New state     35 was old state     40
 Root     35 not converged, maximum delta is    0.579561993568325
 New state     36 was old state     39
 Root     36 not converged, maximum delta is    0.505848471406437
 New state     37 was old state     34
 Root     37 not converged, maximum delta is    0.782438308060584
 New state     38 was old state     37
 Root     38 not converged, maximum delta is    0.473101084832361
 New state     39 was old state     38
 Root     39 not converged, maximum delta is    0.335713810167237
 New state     40 was old state     35
 Root     40 not converged, maximum delta is    0.738656575931339
 New state     41 was old state     45
 Root     41 not converged, maximum delta is    0.147342374386501
 New state     42 was old state     44
 Root     42 not converged, maximum delta is    0.152723003470218
 New state     43 was old state     41
 Root     43 not converged, maximum delta is    0.320628876385712
 New state     44 was old state     42
 Root     44 not converged, maximum delta is    0.068018959921779
 New state     45 was old state     43
 Root     45 not converged, maximum delta is    0.355972013960987
 New state     46 was old state     48
 Root     46 not converged, maximum delta is    0.489503625218075
 Root     47 not converged, maximum delta is    0.275847536009789
 New state     48 was old state     46
 Root     48 not converged, maximum delta is    0.200481105641076
 Root     49 not converged, maximum delta is    0.646928402373891
 Root     50 not converged, maximum delta is    0.332505909633699
 New state     51 was old state     52
 Root     51 not converged, maximum delta is    0.665316341359819
 New state     52 was old state     51
 Root     52 not converged, maximum delta is    0.503654626737511
 New state     53 was old state     54
 Root     53 not converged, maximum delta is    0.224739033178101
 New state     54 was old state     53
 Root     54 not converged, maximum delta is    0.404620008883377
 Root     55 not converged, maximum delta is    0.461408350948629
 Root     56 not converged, maximum delta is    0.437492894374624
 Root     57 not converged, maximum delta is    0.082173751628016
 New state     58 was old state     59
 Root     58 not converged, maximum delta is    0.277228850203376
 New state     59 was old state     60
 Root     59 not converged, maximum delta is    0.082243984716303
 New state     60 was old state     58
 Root     60 not converged, maximum delta is    0.301755314390685
 Root     61 has converged.
 New state     62 was old state     68
 Root     62 not converged, maximum delta is    0.094604225818253
 New state     63 was old state     64
 Root     63 not converged, maximum delta is    0.575572303654390
 New state     64 was old state     62
 Root     64 not converged, maximum delta is    0.542590741597620
 New state     65 was old state     67
 Root     65 not converged, maximum delta is    0.846291438017262
 New state     66 was old state     63
 Root     66 not converged, maximum delta is    0.447086557274472
 New state     67 was old state     65
 Root     67 not converged, maximum delta is    0.494088532063891
 New state     68 was old state     66
 Root     68 not converged, maximum delta is    0.450832106136360
 New state     69 was old state     72
 Root     69 not converged, maximum delta is    0.128332813711806
 New state     70 was old state     69
 Root     70 not converged, maximum delta is    0.050357884702775
 New state     71 was old state     70
 Root     71 not converged, maximum delta is    0.054644360207687
 New state     72 was old state     71
 Root     72 not converged, maximum delta is    0.082853725435135
 Root     73 not converged, maximum delta is    0.125797801861131
 Root     74 not converged, maximum delta is    0.620198968949889
 Root     75 not converged, maximum delta is    0.513730363503065
 Root     76 not converged, maximum delta is    0.084928520851884
 Root     77 has converged.
 New state     78 was old state     80
 Root     78 not converged, maximum delta is    0.303677996221461
 Root     79 not converged, maximum delta is    0.317594250294428
 New state     80 was old state     78
 Root     80 not converged, maximum delta is    0.095285949881498
 Root     81 has converged.
 New state     82 was old state     83
 Root     82 not converged, maximum delta is    0.332635701564575
 New state     83 was old state     84
 Root     83 not converged, maximum delta is    0.480888804165257
 New state     84 was old state     82
 Root     84 not converged, maximum delta is    0.495755542963897
 New state     85 was old state     86
 Root     85 not converged, maximum delta is    0.306519539146723
 New state     86 was old state     85
 Root     86 not converged, maximum delta is    0.175269714880564
 New state     87 was old state     88
 Root     87 not converged, maximum delta is    0.247213596184653
 New state     88 was old state     87
 Root     88 not converged, maximum delta is    0.315460723664154
 Root     89 not converged, maximum delta is    0.255610357289224
 Root     90 has converged.
 New state     91 was old state     93
 Root     91 not converged, maximum delta is    0.475262001935783
 Root     92 not converged, maximum delta is    0.309398145749903
 New state     93 was old state     91
 Root     93 not converged, maximum delta is    0.446650614967322
 New state     94 was old state     98
 Root     94 not converged, maximum delta is    0.476040357213604
 New state     95 was old state     97
 Root     95 not converged, maximum delta is    0.439525868838392
 New state     96 was old state     94
 Root     96 not converged, maximum delta is    0.500392827299049
 New state     97 was old state     96
 Root     97 not converged, maximum delta is    0.342547637833849
 New state     98 was old state     95
 Root     98 not converged, maximum delta is    0.581675543438121
 New state     99 was old state    105
 Root     99 not converged, maximum delta is    0.250876187227248
 New state    100 was old state    103
 Root    100 not converged, maximum delta is    0.352369690189807
 New state    101 was old state     99
 Root    101 not converged, maximum delta is    0.327094778428315
 New state    102 was old state    101
 Root    102 not converged, maximum delta is    0.445206985395949
 New state    103 was old state    100
 Root    103 not converged, maximum delta is    0.258279304106797
 Root    104 not converged, maximum delta is    0.461134708153502
 New state    105 was old state    102
 Root    105 not converged, maximum delta is    0.376341513718182
 Root    106 has converged.
 New state    107 was old state    108
 Root    107 not converged, maximum delta is    0.429064582575375
 New state    108 was old state    107
 Root    108 not converged, maximum delta is    0.421212913473221
 Root    109 not converged, maximum delta is    0.075798076645785
 New state    110 was old state    113
 Root    110 not converged, maximum delta is    0.422071111810856
 Root    111 not converged, maximum delta is    0.471602365498703
 New state    112 was old state    110
 Root    112 not converged, maximum delta is    0.529220714635496
 New state    113 was old state    112
 Root    113 not converged, maximum delta is    0.392086611606994
 Root    114 not converged, maximum delta is    0.428151580402206
 Root    115 has converged.
 Root    116 not converged, maximum delta is    0.497194242218447
 New state    117 was old state    119
 Root    117 not converged, maximum delta is    0.500552792304974
 New state    118 was old state    122
 Root    118 not converged, maximum delta is    0.545890941700929
 New state    119 was old state    118
 Root    119 not converged, maximum delta is    0.525402925879502
 New state    120 was old state    121
 Root    120 not converged, maximum delta is    0.443212393689606
 New state    121 was old state    117
 Root    121 not converged, maximum delta is    0.204484708970964
 New state    122 was old state    120
 Root    122 not converged, maximum delta is    0.453108576117360
 Root    123 not converged, maximum delta is    0.447300473410588
 Root    124 not converged, maximum delta is    0.440416287873063
 Root    125 not converged, maximum delta is    0.240580397087796
 Root    126 not converged, maximum delta is    0.547615528743211
 New state    127 was old state    132
 Root    127 not converged, maximum delta is    0.452997796905179
 New state    128 was old state    129
 Root    128 not converged, maximum delta is    0.480197780282515
 New state    129 was old state    127
 Root    129 not converged, maximum delta is    0.241461267994592
 New state    130 was old state    128
 Root    130 not converged, maximum delta is    0.290948148574603
 New state    131 was old state    130
 Root    131 not converged, maximum delta is    0.479676535049948
 New state    132 was old state    131
 Root    132 not converged, maximum delta is    0.506708314290168
 New state    133 was old state    136
 Root    133 not converged, maximum delta is    0.496173314625999
 New state    134 was old state    133
 Root    134 not converged, maximum delta is    0.529975515281498
 Root    135 not converged, maximum delta is    0.538819335733820
 New state    136 was old state    137
 Root    136 not converged, maximum delta is    0.388167667070442
 New state    137 was old state    134
 Root    137 not converged, maximum delta is    0.688683843182733
 New state    138 was old state    144
 Root    138 not converged, maximum delta is    0.574925398973647
 Root    139 not converged, maximum delta is    0.733825437299136
 New state    140 was old state    138
 Root    140 not converged, maximum delta is    0.486076734046146
 Root    141 not converged, maximum delta is    0.562842999015302
 Root    142 not converged, maximum delta is    0.471855775860600
 Root    143 not converged, maximum delta is    0.631815095982362
 New state    144 was old state    140
 Root    144 not converged, maximum delta is    0.736885059021431
 Root    145 has converged.
 New state    146 was old state    148
 Root    146 not converged, maximum delta is    0.463123461717059
 Root    147 not converged, maximum delta is    0.264450585942208
 New state    148 was old state    152
 Root    148 not converged, maximum delta is    0.429943920344689
 New state    149 was old state    150
 Root    149 not converged, maximum delta is    0.377162735071207
 New state    150 was old state    149
 Root    150 not converged, maximum delta is    0.387367071480552
 New state    151 was old state    146
 Root    151 not converged, maximum delta is    0.389001519988517
 New state    152 was old state    151
 Root    152 not converged, maximum delta is    0.328117979656683
 Root    153 not converged, maximum delta is    0.421175119147389
 Root    154 not converged, maximum delta is    0.429867588457140
 Root    155 not converged, maximum delta is    0.105220491467905
 New state    156 was old state    157
 Root    156 not converged, maximum delta is    0.386960906532089
 New state    157 was old state    158
 Root    157 not converged, maximum delta is    0.450455939805322
 New state    158 was old state    156
 Root    158 not converged, maximum delta is    0.220817683348510
 Root    159 not converged, maximum delta is    0.004179780806765
 Root    160 has converged.
 New state    161 was old state    162
 Root    161 not converged, maximum delta is    0.503585698056409
 New state    162 was old state    161
 Root    162 not converged, maximum delta is    0.467161225334465
 New state    163 was old state    164
 Root    163 not converged, maximum delta is    0.245778617983840
 New state    164 was old state    163
 Root    164 not converged, maximum delta is    0.247572580014619
 Root    165 not converged, maximum delta is    0.369685188240513
 Root    166 has converged.
 Root    167 not converged, maximum delta is    0.293906435394171
 New state    168 was old state    169
 Root    168 not converged, maximum delta is    0.295233362289003
 New state    169 was old state    168
 Root    169 not converged, maximum delta is    0.074461626867726
 Root    170 not converged, maximum delta is    0.517506201025358
 Root    171 not converged, maximum delta is    0.521350128575750
 Root    172 not converged, maximum delta is    0.364236025256236
 Root    173 not converged, maximum delta is    0.313422657522312
 Root    174 not converged, maximum delta is    0.361855420880635
 New state    175 was old state    176
 Root    175 not converged, maximum delta is    0.493998793955509
 New state    176 was old state    175
 Root    176 not converged, maximum delta is    0.320557110299568
 New state    177 was old state    178
 Root    177 not converged, maximum delta is    0.709564928811638
 New state    178 was old state    179
 Root    178 not converged, maximum delta is    0.788805551921697
 New state    179 was old state    180
 Root    179 not converged, maximum delta is    0.499099705792334
 New state    180 was old state    177
 Root    180 not converged, maximum delta is    0.524824359478061
 Root    181 not converged, maximum delta is    0.522032548141790
 New state    182 was old state    183
 Root    182 not converged, maximum delta is    0.104881096897411
 New state    183 was old state    184
 Root    183 not converged, maximum delta is    0.103584274149316
 New state    184 was old state    182
 Root    184 not converged, maximum delta is    0.043554835044990
 Root    185 has converged.
 Root    186 has converged.
 Root    187 not converged, maximum delta is    0.466470909940916
 New state    188 was old state    190
 Root    188 not converged, maximum delta is    0.501183241469766
 Root    189 not converged, maximum delta is    0.449122271873133
 New state    190 was old state    193
 Root    190 not converged, maximum delta is    0.523169429079436
 New state    191 was old state    188
 Root    191 not converged, maximum delta is    0.438265163310546
 Root    192 not converged, maximum delta is    0.486734345975385
 New state    193 was old state    191
 Root    193 not converged, maximum delta is    0.476611686825644
 New state    194 was old state    200
 Root    194 not converged, maximum delta is    0.388720799787174
 New state    195 was old state    194
 Root    195 not converged, maximum delta is    0.367683516088327
 Root    196 not converged, maximum delta is    0.677066547432911
 New state    197 was old state    198
 Root    197 not converged, maximum delta is    0.465605018069518
 New state    198 was old state    199
 Root    198 not converged, maximum delta is    0.661299801185074
 New state    199 was old state    197
 Root    199 not converged, maximum delta is    0.533694458695917
 New state    200 was old state    195
 Root    200 not converged, maximum delta is    0.379872941408106
 Root    201 not converged, maximum delta is    0.629458589473007
 New state    202 was old state    203
 Root    202 not converged, maximum delta is    0.621579650536885
 New state    203 was old state    204
 Root    203 not converged, maximum delta is    0.270323838054437
 New state    204 was old state    202
 Root    204 not converged, maximum delta is    0.586619970362683
 Root    205 not converged, maximum delta is    0.630568541528727
 New state    206 was old state    207
 Root    206 not converged, maximum delta is    0.028626932150089
 New state    207 was old state    206
 Root    207 not converged, maximum delta is    0.407310852938841
 Root    208 not converged, maximum delta is    0.407158328925763
 New state    209 was old state    211
 Root    209 not converged, maximum delta is    0.115617143503174
 New state    210 was old state    212
 Root    210 not converged, maximum delta is    0.621505800416723
 New state    211 was old state    209
 Root    211 not converged, maximum delta is    0.153291182629337
 New state    212 was old state    210
 Root    212 not converged, maximum delta is    0.047614557503707
 Root    213 not converged, maximum delta is    0.598743544088533
 New state    214 was old state    216
 Root    214 not converged, maximum delta is    0.424207843346721
 New state    215 was old state    214
 Root    215 not converged, maximum delta is    0.424380885826072
 New state    216 was old state    215
 Root    216 not converged, maximum delta is    0.033797925369326
 Root    217 not converged, maximum delta is    0.002011052820474
 Root    218 not converged, maximum delta is    0.002044985032430
 Root    219 not converged, maximum delta is    0.208842906135184
 Root    220 not converged, maximum delta is    0.443148760155924
 Root    221 not converged, maximum delta is    0.239161786801236
 Root    222 not converged, maximum delta is    0.519817536182255
 Root    223 not converged, maximum delta is    0.536613136372784
 No map to state    224
 Excitation Energies [eV] at current iteration:
 Root      1 :     1.155840313676404   Change is   -0.000000932492412
 Root      2 :     1.155840313676791   Change is   -0.000000932492153
 Root      3 :     1.155840313677498   Change is   -0.000000932491355
 Root      4 :     2.883485383126038   Change is   -0.000000002791360
 Root      5 :     3.177455255692207   Change is   -0.000000204255902
 Root      6 :     3.177455255692340   Change is   -0.000000204255733
 Root      7 :     3.177455255692527   Change is   -0.000000204255684
 Root      8 :     3.231039082137119   Change is   -0.000000004313267
 Root      9 :     3.231039082137330   Change is   -0.000000004312947
 Root     10 :     3.231039082137349   Change is   -0.000000004313013
 Root     11 :     3.231039082137373   Change is   -0.000000004312983
 Root     12 :     3.231039082137687   Change is   -0.000000004312621
 Root     13 :     3.772012383225986   Change is   -0.000000001624943
 Root     14 :     3.886958035624875   Change is   -0.000000088139488
 Root     15 :     3.886958035624935   Change is   -0.000000088139312
 Root     16 :     3.886958035624959   Change is   -0.000000088139234
 Root     17 :     3.894429642744663   Change is   -0.000000000004447
 Root     18 :     3.894429642744754   Change is   -0.000000000004296
 Root     19 :     3.894429642744760   Change is   -0.000000000004151
 Root     20 :     3.894429642744778   Change is   -0.000000000004350
 Root     21 :     3.894429642744778   Change is   -0.000000000004236
 Root     22 :     3.894429642744784   Change is   -0.000000000004254
 Root     23 :     3.894429642744826   Change is   -0.000000000004278
 Root     24 :     3.898304364876072   Change is   -0.000000002143818
 Root     25 :     3.898304364876216   Change is   -0.000000002143697
 Root     26 :     3.898304364876349   Change is   -0.000000002143564
 Root     27 :     3.898304364876349   Change is   -0.000000002143552
 Root     28 :     3.898304364876410   Change is   -0.000000002143583
 Root     29 :     4.185064778654131   Change is   -0.000000001461358
 Root     30 :     4.248895738627037   Change is   -0.000000121782831
 Root     31 :     4.248895738627097   Change is   -0.000000121782752
 Root     32 :     4.248895738627188   Change is   -0.000000121782831
 Root     33 :     4.424379700490390   Change is   -0.000000005187650
 Root     34 :     4.479511128670325   Change is   -0.000000000038797
 Root     35 :     4.479511128670373   Change is   -0.000000000165808
 Root     36 :     4.479511128670373   Change is   -0.000000000038833
 Root     37 :     4.479511128670397   Change is   -0.000000000038639
 Root     38 :     4.479511128670433   Change is   -0.000000000038688
 Root     39 :     4.479511128670469   Change is   -0.000000000038700
 Root     40 :     4.479511128670476   Change is   -0.000000000038627
 Root     41 :     4.489670171939395   Change is   -0.000000007827189
 Root     42 :     4.489670171939395   Change is   -0.000000007827129
 Root     43 :     4.489670171939412   Change is   -0.000000007827056
 Root     44 :     4.489670171939449   Change is   -0.000000007827026
 Root     45 :     4.489670171939684   Change is   -0.000000007826827
 Root     46 :     6.990677657776142   Change is   -0.000000003204178
 Root     47 :     6.990677657776172   Change is   -0.000000003204087
 Root     48 :     6.990677657776196   Change is   -0.000000003204051
 Root     49 :     6.990677657776214   Change is   -0.000000003204105
 Root     50 :     6.990677657776220   Change is   -0.000000003204154
 Root     51 :     6.990677657776226   Change is   -0.000000016636969
 Root     52 :     6.990677657776239   Change is   -0.000000003204172
 Root     53 :     7.628004442109605   Change is   -0.000001953479971
 Root     54 :     7.628004442110137   Change is   -0.000001953479385
 Root     55 :     7.628004442110155   Change is   -0.000001953479542
 Root     56 :     8.040050943524667   Change is   -0.000000195889971
 Root     57 :     8.040050943524758   Change is   -0.000000195889899
 Root     58 :     8.040050943524818   Change is   -0.000000195889887
 Root     59 :     8.040050943524831   Change is   -0.000000195889953
 Root     60 :     8.040050943525440   Change is   -0.000000195889234
 Root     61 :    10.217910088051330   Change is   -0.000000673856073
 Root     62 :    16.606631916775350   Change is   -0.000003413617128
 Root     63 :    16.606631916775440   Change is   -0.000000310222667
 Root     64 :    16.606631916775520   Change is   -0.000000310222528
 Root     65 :    16.606631916775530   Change is   -0.000000310222691
 Root     66 :    16.606631916775540   Change is   -0.000000310222552
 Root     67 :    16.606631916775620   Change is   -0.000000310222504
 Root     68 :    16.606631916775640   Change is   -0.000000310222558
 Root     69 :    22.056115507259510   Change is   -0.000017844026476
 Root     70 :    22.056115507259560   Change is   -0.000017844026301
 Root     71 :    22.056115507259900   Change is   -0.000017844026029
 Root     72 :    22.056115507259920   Change is   -0.000017844026023
 Root     73 :    22.056115507260080   Change is   -0.000017844026271
 Root     74 :    23.219825733732390   Change is   -0.000018251628466
 Root     75 :    23.219825733732630   Change is   -0.000018251628261
 Root     76 :    23.219825733732700   Change is   -0.000018251628285
 Root     77 :    35.969452068541170   Change is   -0.000025412402157
 Root     78 :    39.188851007169570   Change is   -0.000000577772179
 Root     79 :    39.188851007170060   Change is   -0.000000577771635
 Root     80 :    39.188851007170090   Change is   -0.000000577771563
 Root     81 :    43.812010835644950   Change is   -0.000000014201739
 Root     82 :    44.838708686699480   Change is   -0.000000071195988
 Root     83 :    44.838708686699560   Change is   -0.000000071196182
 Root     84 :    44.838708686699630   Change is   -0.000000071195638
 Root     85 :    45.228186640686890   Change is   -0.000000008671645
 Root     86 :    45.228186640686970   Change is   -0.000000008671536
 Root     87 :    45.228186640687090   Change is   -0.000000008671536
 Root     88 :    45.228186640687250   Change is   -0.000000008671343
 Root     89 :    45.228186640687280   Change is   -0.000000008671415
 Root     90 :    45.865880593265030   Change is   -0.000000001412520
 Root     91 :    45.998989121172540   Change is   -0.000000016614305
 Root     92 :    45.998989121172560   Change is   -0.000000016614269
 Root     93 :    45.998989121172640   Change is   -0.000000016614112
 Root     94 :    46.134394127693960   Change is   -0.000000004147930
 Root     95 :    46.134394127694070   Change is   -0.000000004147737
 Root     96 :    46.134394127694090   Change is   -0.000000004147640
 Root     97 :    46.134394127694120   Change is   -0.000000004147688
 Root     98 :    46.134394127694260   Change is   -0.000000004147471
 Root     99 :    46.246913273230040   Change is   -0.000000000044724
 Root    100 :    46.246913273230070   Change is   -0.000000000031552
 Root    101 :    46.246913273230090   Change is   -0.000000000031455
 Root    102 :    46.246913273230130   Change is   -0.000000000031480
 Root    103 :    46.246913273230160   Change is   -0.000000000031431
 Root    104 :    46.246913273230180   Change is   -0.000000000031504
 Root    105 :    46.246913273230280   Change is   -0.000000000031335
 Root    106 :    46.384369661341590   Change is   -0.000000000756899
 Root    107 :    46.440851757974100   Change is   -0.000000006266389
 Root    108 :    46.440851757974190   Change is   -0.000000006266208
 Root    109 :    46.440851757974290   Change is   -0.000000006266220
 Root    110 :    46.594225512147970   Change is   -0.000000007193000
 Root    111 :    46.594225512148220   Change is   -0.000000007192625
 Root    112 :    46.594225512148240   Change is   -0.000000007192601
 Root    113 :    46.594225512148320   Change is   -0.000000007192565
 Root    114 :    46.594225512148390   Change is   -0.000000007192589
 Root    115 :    46.635719309294080   Change is   -0.000000000201348
 Root    116 :    46.805238725798700   Change is   -0.000000000502597
 Root    117 :    46.805238725798840   Change is   -0.000000000502609
 Root    118 :    46.805238725798850   Change is   -0.000000000603670
 Root    119 :    46.805238725798900   Change is   -0.000000000502525
 Root    120 :    46.805238725798990   Change is   -0.000000000502682
 Root    121 :    46.805238725798990   Change is   -0.000000000502404
 Root    122 :    46.805238725799030   Change is   -0.000000000502513
 Root    123 :    47.887793308478060   Change is   -0.000000120135955
 Root    124 :    47.887793308478130   Change is   -0.000000120136148
 Root    125 :    47.887793308478600   Change is   -0.000000120135761
 Root    126 :    49.039527577825430   Change is   -0.000000130310220
 Root    127 :    49.039527577825440   Change is   -0.000000978820029
 Root    128 :    49.039527577825550   Change is   -0.000000130310147
 Root    129 :    49.039527577825590   Change is   -0.000000130310087
 Root    130 :    49.039527577825590   Change is   -0.000000130310087
 Root    131 :    49.039527577825630   Change is   -0.000000130310075
 Root    132 :    49.039527577825710   Change is   -0.000000130310159
 Root    133 :    49.073970027796630   Change is   -0.000000020554325
 Root    134 :    49.073970027796800   Change is   -0.000000020554011
 Root    135 :    49.073970027796860   Change is   -0.000000020554059
 Root    136 :    49.073970027796900   Change is   -0.000000020554168
 Root    137 :    49.073970027797200   Change is   -0.000000020553661
 Root    138 :    49.137416904797540   Change is   -0.000073055255637
 Root    139 :    49.137416904797540   Change is   -0.000010147297770
 Root    140 :    49.137416904797680   Change is   -0.000010147297577
 Root    141 :    49.137416904797750   Change is   -0.000010147297685
 Root    142 :    49.137416904797870   Change is   -0.000010147297722
 Root    143 :    49.137416904797900   Change is   -0.000010147297951
 Root    144 :    49.137416904798410   Change is   -0.000010147296997
 Root    145 :    49.813464265770160   Change is   -0.000000131764454
 Root    146 :    57.388608238217120   Change is   -0.000002610610963
 Root    147 :    57.388608238217220   Change is   -0.000002610610854
 Root    148 :    57.388608238217290   Change is   -0.000002610632702
 Root    149 :    57.388608238217320   Change is   -0.000002610610987
 Root    150 :    57.388608238217330   Change is   -0.000002610610963
 Root    151 :    57.388608238217400   Change is   -0.000002610610624
 Root    152 :    57.388608238217440   Change is   -0.000002610610866
 Root    153 :    59.531488879422900   Change is   -0.000016330315085
 Root    154 :    59.531488879422920   Change is   -0.000016330315145
 Root    155 :    59.531488879423140   Change is   -0.000016330314964
 Root    156 :    60.340623061963680   Change is   -0.000015707611658
 Root    157 :    60.340623061963910   Change is   -0.000015707611501
 Root    158 :    60.340623061963930   Change is   -0.000015707611380
 Root    159 :    60.340623061964140   Change is   -0.000015707611465
 Root    160 :    60.340623061964340   Change is   -0.000015707611356
 Root    161 :    69.149466510287670   Change is   -0.000092446535001
 Root    162 :    69.149466510287720   Change is   -0.000092446534868
 Root    163 :    69.149466510288080   Change is   -0.000092446534856
 Root    164 :    69.149466510288480   Change is   -0.000092446534385
 Root    165 :    69.149466510288520   Change is   -0.000092446534506
 Root    166 :    71.328528907289820   Change is   -0.000020864847839
 Root    167 :    72.725883287168190   Change is   -0.000115485204646
 Root    168 :    72.725883287168270   Change is   -0.000115485204742
 Root    169 :    72.725883287168300   Change is   -0.000115485204549
 Root    170 :    86.254010065107640   Change is   -0.000048471662078
 Root    171 :    86.254010065107840   Change is   -0.000048471661908
 Root    172 :    86.254010065107880   Change is   -0.000048471661957
 Root    173 :    86.254010065107980   Change is   -0.000048471661884
 Root    174 :    86.254010065108090   Change is   -0.000048471661908
 Root    175 :    86.254010065108160   Change is   -0.000048553766874
 Root    176 :    86.254010065108430   Change is   -0.000048471661908
 Root    177 :   102.000505064477400   Change is   -0.000049684540266
 Root    178 :   102.000505064477400   Change is   -0.000049684540338
 Root    179 :   102.000505064477500   Change is   -0.000049684540290
 Root    180 :   102.000505064477600   Change is   -0.000049684540000
 Root    181 :   102.000505064477700   Change is   -0.000049684540580
 Root    182 :   103.743445296509600   Change is   -0.000053236349164
 Root    183 :   103.743445296509600   Change is   -0.000053236349164
 Root    184 :   103.743445296509800   Change is   -0.000053236348729
 Root    185 :   118.375781254588100   Change is   -0.000160746417428
 Root    186 :   146.434571898412100   Change is   -0.000133660539170
 Root    187 :   156.094506786394400   Change is   -0.000768458116664
 Root    188 :   156.094506786394600   Change is   -0.000768458117051
 Root    189 :   156.094506786394600   Change is   -0.000768458117051
 Root    190 :   156.094506786394800   Change is   -0.009064192404418
 Root    191 :   156.094506786395000   Change is   -0.000768458116664
 Root    192 :   156.094506786395000   Change is   -0.000768458116833
 Root    193 :   156.094506786395000   Change is   -0.000768458116640
 Root    194 :   186.101605250435800   Change is   -0.009348303597951
 Root    195 :   186.101605250436200   Change is   -0.008683413898316
 Root    196 :   186.101605250436300   Change is   -0.008683413898655
 Root    197 :   186.101605250436500   Change is   -0.008683413898824
 Root    198 :   186.101605250436500   Change is   -0.008683413899066
 Root    199 :   186.101605250436600   Change is   -0.008683413898679
 Root    200 :   186.101605250437000   Change is   -0.008683413897712
 Root    201 :   200.940743693791600   Change is   -0.014299058074386
 Root    202 :   200.940743693792700   Change is   -0.014299058073612
 Root    203 :   200.940743693792700   Change is   -0.014299058073612
 Root    204 :   200.940743693792800   Change is   -0.014299058073322
 Root    205 :   200.940743693793600   Change is   -0.014299058073032
 Root    206 :   210.446216118826200   Change is   -0.018110710059008
 Root    207 :   210.446216118826700   Change is   -0.018110710058234
 Root    208 :   210.446216118826900   Change is   -0.018110710059394
 Root    209 :   226.793527657081800   Change is   -0.014673122901605
 Root    210 :   226.793527657082200   Change is   -0.014673122901509
 Root    211 :   226.793527657082300   Change is   -0.014673122900880
 Root    212 :   226.793527657082500   Change is   -0.014673122900880
 Root    213 :   226.793527657082600   Change is   -0.014673122901315
 Root    214 :   234.391731032788700   Change is   -0.018553771625938
 Root    215 :   234.391731032789000   Change is   -0.018553771624778
 Root    216 :   234.391731032789400   Change is   -0.018553771624488
 Root    217 :   367.474343600394500   Change is   -0.005539542098702
 Root    218 :   386.035123181685600   Change is   -0.005595932695955
 Root    219 :   456.098652516486500   Change is   -0.189669584499032
 Root    220 :   456.098652516486700   Change is   -0.189669584499322
 Root    221 :   456.098652516487500   Change is   -0.189669584499516
 Root    222 :   456.098652516487600   Change is   -0.189669584499612
 Root    223 :   456.098652516487700   Change is   -0.189669584501062
 Root    224 :   456.098652516490400
 Convergence achieved on expansion vectors.
 ***********************************************************************
 Excited states from <AA,BB:AA,BB> singles matrix:
 ***********************************************************************
 
 ExtSpn:  IState=     1 X2= 1.000 Y2= 0.000 X2-Y2-1= 6.66D-16
          S2Grnd=  2.000 Ra=  0.000 Rb=  0.000 T=  0.000 S2Ext=  0.000 S2=  2.000
 ExtSpn:  IState=     2 X2= 1.000 Y2= 0.000 X2-Y2-1=-5.55D-16
          S2Grnd=  2.000 Ra=  0.000 Rb=  0.000 T=  0.000 S2Ext=  0.000 S2=  2.000
 ExtSpn:  IState=     3 X2= 1.000 Y2= 0.000 X2-Y2-1= 6.66D-16
          S2Grnd=  2.000 Ra=  0.000 Rb=  0.000 T=  0.000 S2Ext=  0.000 S2=  2.000
 ExtSpn:  IState=     4 X2= 1.000 Y2= 0.000 X2-Y2-1= 4.44D-16
[...]
 Root  2 =    3.918416644930
 Norms of the Right Residuals
 Root I=  1 Norm= 1.18D-02 Max= 2.35D-03
 Root I=  2 Norm= 8.33D-03 Max= 2.23D-03
 New vectors created:   2

 Right Eigenvector.

 Vector Nr.   3
 **********************
 DD1Dir will call FoFMem   1 times, MxPair=         2
 NAB=     0 NAA=     1 NBB=     0.
 Vector Nr.   4
 **********************
 DD1Dir will call FoFMem   1 times, MxPair=         2
 NAB=     0 NAA=     1 NBB=     0.
 Actual subspace dimension: NDim=   4, NOld=   2, NNew=   2
 Right eigenvalues (eV) at iteration    2
 Root  1 =    3.249064160470
 Root  2 =    3.917279865213
 Norms of the Right Residuals
 Root I=  1 Norm= 1.16D-03 Max= 3.26D-04
 Root I=  2 Norm= 8.27D-04 Max= 2.33D-04
 New vectors created:   2

 Right Eigenvector.

 Vector Nr.   5
 **********************
 DD1Dir will call FoFMem   1 times, MxPair=         2
 NAB=     0 NAA=     1 NBB=     0.
 Vector Nr.   6
 **********************
 DD1Dir will call FoFMem   1 times, MxPair=         2
 NAB=     0 NAA=     1 NBB=     0.
 Actual subspace dimension: NDim=   6, NOld=   4, NNew=   2
 Right eigenvalues (eV) at iteration    3
 Root  1 =    3.249087929836
 Root  2 =    3.917300854045
 Norms of the Right Residuals
 Root I=  1 Norm= 2.96D-04 Max= 6.53D-05
 Root I=  2 Norm= 2.45D-04 Max= 5.32D-05
 New vectors created:   2

 Right Eigenvector.

 Vector Nr.   7
 **********************
 DD1Dir will call FoFMem   1 times, MxPair=         2
 NAB=     0 NAA=     1 NBB=     0.
 Vector Nr.   8
 **********************
 DD1Dir will call FoFMem   1 times, MxPair=         2
 NAB=     0 NAA=     1 NBB=     0.
 Actual subspace dimension: NDim=   8, NOld=   6, NNew=   2
 Right eigenvalues (eV) at iteration    4
 Root  1 =    3.249086017058
 Root  2 =    3.917292408688
 Norms of the Right Residuals
 Root I=  1 Norm= 1.09D-04 Max= 3.11D-05
 Root I=  2 Norm= 1.62D-04 Max= 5.60D-05
 New vectors created:   2

 Right Eigenvector.

 Vector Nr.   9
 **********************
 DD1Dir will call FoFMem   1 times, MxPair=         2
 NAB=     0 NAA=     1 NBB=     0.
 Vector Nr.  10
 **********************
 DD1Dir will call FoFMem   1 times, MxPair=         2
 NAB=     0 NAA=     1 NBB=     0.
 Actual subspace dimension: NDim=  10, NOld=   8, NNew=   2
 Right eigenvalues (eV) at iteration    5
 Root  1 =    3.249085356523
 Root  2 =    3.917293517063
 Norms of the Right Residuals
 Root I=  1 Norm= 1.52D-05 Max= 3.66D-06
 Root I=  2 Norm= 2.91D-05 Max= 1.25D-05
 New vectors created:   2

 Right Eigenvector.

 Vector Nr.  11
 **********************
 DD1Dir will call FoFMem   1 times, MxPair=         2
 NAB=     0 NAA=     1 NBB=     0.
 Vector Nr.  12
 **********************
 DD1Dir will call FoFMem   1 times, MxPair=         2
 NAB=     0 NAA=     1 NBB=     0.
 Actual subspace dimension: NDim=  12, NOld=  10, NNew=   2
 Right eigenvalues (eV) at iteration    6
 Root  1 =    3.249085338103
 Root  2 =    3.917293179220
 Norms of the Right Residuals
 Root I=  1 Norm= 2.04D-06 Max= 4.38D-07
 Root I=  2 Norm= 2.75D-06 Max= 9.47D-07
 New vectors created:   1

 Right Eigenvector.

 Vector Nr.  13
 **********************
 DD1Dir will call FoFMem   1 times, MxPair=         2
 NAB=     0 NAA=     1 NBB=     0.
 Actual subspace dimension: NDim=  13, NOld=  12, NNew=   1
 Right eigenvalues (eV) at iteration    7
 Root  1 =    3.249085355089
 Root  2 =    3.917293136941
 Norms of the Right Residuals
 Root I=  1 Norm= 1.66D-06 Max= 3.75D-07
 Root I=  2 Norm= 2.89D-07 Max= 8.44D-08
 New vectors created:   0
 Final Eigenvalues for Irrep    3:
 Root       Hartree              eV                 nm 
   1     0.119401689816     3.249085355089   381.597216970089
   2     0.143957873967     3.917293136941   316.504761287449

 *****************************************************
 Starting Irrep 4
 Dimension of the space: 
 Singles AA=      18, Singles BB=       0, Doubles AA=       1208,
 Doubles AB=           0, Doubles BB=          0, Total=        1226
 EnOnly = T DoTwo = F, DoSame = F, DoRgt = T, DoLft = F, DoTrip = T,
 MSek =   2, InMSek =   2, MConv =   2, MaxMI =   40, Conv =  1.00D-05

 Right Eigenvector.

 Vector Nr.   1
 **********************
 DD1Dir will call FoFMem   1 times, MxPair=         2
 NAB=     0 NAA=     1 NBB=     0.
 Vector Nr.   2
 **********************
 DD1Dir will call FoFMem   1 times, MxPair=         2
 NAB=     0 NAA=     1 NBB=     0.
 Actual subspace dimension: NDim=   2, NOld=   0, NNew=   2
 Right eigenvalues (eV) at iteration    1
 Root  1 =    3.251150781694
 Root  2 =    3.918416644930
 Norms of the Right Residuals
 Root I=  1 Norm= 1.18D-02 Max= 2.35D-03
 Root I=  2 Norm= 8.33D-03 Max= 2.23D-03
 New vectors created:   2

 Right Eigenvector.

 Vector Nr.   3
 **********************
 DD1Dir will call FoFMem   1 times, MxPair=         2
 NAB=     0 NAA=     1 NBB=     0.
 Vector Nr.   4
 **********************
 DD1Dir will call FoFMem   1 times, MxPair=         2
 NAB=     0 NAA=     1 NBB=     0.
 Actual subspace dimension: NDim=   4, NOld=   2, NNew=   2
 Right eigenvalues (eV) at iteration    2
 Root  1 =    3.249067074092
 Root  2 =    3.917281257049
 Norms of the Right Residuals
 Root I=  1 Norm= 1.13D-03 Max= 3.28D-04
 Root I=  2 Norm= 8.04D-04 Max= 2.35D-04
 New vectors created:   2

 Right Eigenvector.

 Vector Nr.   5
 **********************
 DD1Dir will call FoFMem   1 times, MxPair=         2
 NAB=     0 NAA=     1 NBB=     0.
 Vector Nr.   6
 **********************
 DD1Dir will call FoFMem   1 times, MxPair=         2
 NAB=     0 NAA=     1 NBB=     0.
 Actual subspace dimension: NDim=   6, NOld=   4, NNew=   2
 Right eigenvalues (eV) at iteration    3
 Root  1 =    3.249090100312
 Root  2 =    3.917301940901
 Norms of the Right Residuals
 Root I=  1 Norm= 2.96D-04 Max= 6.59D-05
 Root I=  2 Norm= 2.45D-04 Max= 5.38D-05
 New vectors created:   2

 Right Eigenvector.

 Vector Nr.   7
 **********************
 DD1Dir will call FoFMem   1 times, MxPair=         2
 NAB=     0 NAA=     1 NBB=     0.
 Vector Nr.   8
 **********************
 DD1Dir will call FoFMem   1 times, MxPair=         2
 NAB=     0 NAA=     1 NBB=     0.
 Actual subspace dimension: NDim=   8, NOld=   6, NNew=   2
 Right eigenvalues (eV) at iteration    4
 Root  1 =    3.249088274026
 Root  2 =    3.917293474272
 Norms of the Right Residuals
 Root I=  1 Norm= 1.08D-04 Max= 3.10D-05
 Root I=  2 Norm= 1.60D-04 Max= 5.59D-05
 New vectors created:   2

 Right Eigenvector.

 Vector Nr.   9
 **********************
 DD1Dir will call FoFMem   1 times, MxPair=         2
 NAB=     0 NAA=     1 NBB=     0.
 Vector Nr.  10
 **********************
 DD1Dir will call FoFMem   1 times, MxPair=         2
 NAB=     0 NAA=     1 NBB=     0.
 Actual subspace dimension: NDim=  10, NOld=   8, NNew=   2
 Right eigenvalues (eV) at iteration    5
 Root  1 =    3.249087606781
 Root  2 =    3.917294590194
 Norms of the Right Residuals
 Root I=  1 Norm= 1.52D-05 Max= 3.69D-06
 Root I=  2 Norm= 2.92D-05 Max= 1.26D-05
 New vectors created:   2

 Right Eigenvector.

 Vector Nr.  11
 **********************
 DD1Dir will call FoFMem   1 times, MxPair=         2
 NAB=     0 NAA=     1 NBB=     0.
 Vector Nr.  12
 **********************
 DD1Dir will call FoFMem   1 times, MxPair=         2
 NAB=     0 NAA=     1 NBB=     0.
 Actual subspace dimension: NDim=  12, NOld=  10, NNew=   2
 Right eigenvalues (eV) at iteration    6
 Root  1 =    3.249087577352
 Root  2 =    3.917294247989
 Norms of the Right Residuals
 Root I=  1 Norm= 2.09D-06 Max= 4.44D-07
 Root I=  2 Norm= 2.79D-06 Max= 9.40D-07
 New vectors created:   1

 Right Eigenvector.

 Vector Nr.  13
 **********************
 DD1Dir will call FoFMem   1 times, MxPair=         2
 NAB=     0 NAA=     1 NBB=     0.
 Actual subspace dimension: NDim=  13, NOld=  12, NNew=   1
 Right eigenvalues (eV) at iteration    7
 Root  1 =    3.249087594385
 Root  2 =    3.917294207179
 Norms of the Right Residuals
 Root I=  1 Norm= 1.68D-06 Max= 3.77D-07
 Root I=  2 Norm= 2.97D-07 Max= 8.30D-08
 New vectors created:   0
 Final Eigenvalues for Irrep    4:
 Root       Hartree              eV                 nm 
   1     0.119401772108     3.249087594385   381.596953970392
   2     0.143957913297     3.917294207179   316.504674815633

 *****************************************************
 Starting Irrep 5
 Dimension of the space: 
 Singles AA=      16, Singles BB=       0, Doubles AA=        918,
 Doubles AB=           0, Doubles BB=          0, Total=         934
 EnOnly = T DoTwo = F, DoSame = F, DoRgt = T, DoLft = F, DoTrip = T,
 MSek =   1, InMSek =   1, MConv =   1, MaxMI =   20, Conv =  1.00D-05

 Right Eigenvector.

 Vector Nr.   1
 **********************
 DD1Dir will call FoFMem   1 times, MxPair=         2
 NAB=     0 NAA=     1 NBB=     0.
 Actual subspace dimension: NDim=   1, NOld=   0, NNew=   1
 Right eigenvalues (eV) at iteration    1
 Root  1 =    3.914542453758
 Norms of the Right Residuals
 Root I=  1 Norm= 4.02D-03 Max= 2.23D-03
 New vectors created:   1

 Right Eigenvector.

 Vector Nr.   2
 **********************
 DD1Dir will call FoFMem   1 times, MxPair=         2
 NAB=     0 NAA=     1 NBB=     0.
 Actual subspace dimension: NDim=   2, NOld=   1, NNew=   1
 Right eigenvalues (eV) at iteration    2
 Root  1 =    3.914055842793
 Norms of the Right Residuals
 Root I=  1 Norm= 2.90D-04 Max= 1.52D-04
 New vectors created:   1

 Right Eigenvector.

 Vector Nr.   3
 **********************
 DD1Dir will call FoFMem   1 times, MxPair=         2
 NAB=     0 NAA=     1 NBB=     0.
 Actual subspace dimension: NDim=   3, NOld=   2, NNew=   1
 Right eigenvalues (eV) at iteration    3
 Root  1 =    3.914082514566
 Norms of the Right Residuals
 Root I=  1 Norm= 5.82D-05 Max= 3.37D-05
 New vectors created:   1

 Right Eigenvector.

 Vector Nr.   4
 **********************
 DD1Dir will call FoFMem   1 times, MxPair=         2
 NAB=     0 NAA=     1 NBB=     0.
 Actual subspace dimension: NDim=   4, NOld=   3, NNew=   1
 Right eigenvalues (eV) at iteration    4
 Root  1 =    3.914080038760
 Norms of the Right Residuals
 Root I=  1 Norm= 7.98D-06 Max= 3.27D-06
 New vectors created:   1

 Right Eigenvector.

 Vector Nr.   5
 **********************
 DD1Dir will call FoFMem   1 times, MxPair=         2
 NAB=     0 NAA=     1 NBB=     0.
 Actual subspace dimension: NDim=   5, NOld=   4, NNew=   1
 Right eigenvalues (eV) at iteration    5
 Root  1 =    3.914080289646
 Norms of the Right Residuals
 Root I=  1 Norm= 7.42D-06 Max= 3.17D-06
 New vectors created:   1

 Right Eigenvector.

 Vector Nr.   6
 **********************
 DD1Dir will call FoFMem   1 times, MxPair=         2
 NAB=     0 NAA=     1 NBB=     0.
 Actual subspace dimension: NDim=   6, NOld=   5, NNew=   1
 Right eigenvalues (eV) at iteration    6
 Root  1 =    3.914080189108
 Norms of the Right Residuals
 Root I=  1 Norm= 1.73D-06 Max= 5.46D-07
 New vectors created:   1

 Right Eigenvector.

 Vector Nr.   7
 **********************
 DD1Dir will call FoFMem   1 times, MxPair=         2
 NAB=     0 NAA=     1 NBB=     0.
 Actual subspace dimension: NDim=   7, NOld=   6, NNew=   1
 Right eigenvalues (eV) at iteration    7
 Root  1 =    3.914080158703
 Norms of the Right Residuals
 Root I=  1 Norm= 5.54D-07 Max= 1.94D-07
 New vectors created:   0
 Final Eigenvalues for Irrep    5:
 Root       Hartree              eV                 nm 
   1     0.143839799189     3.914080158703   316.764572755048

 *****************************************************
 Starting Irrep 6
 Dimension of the space: 
 Singles AA=      52, Singles BB=       0, Doubles AA=       1242,
 Doubles AB=           0, Doubles BB=          0, Total=        1294
 EnOnly = T DoTwo = F, DoSame = F, DoRgt = T, DoLft = F, DoTrip = T,
 MSek =   4, InMSek =   4, MConv =   4, MaxMI =   80, Conv =  1.00D-05

 Right Eigenvector.

 Vector Nr.   1
 **********************
 DD1Dir will call FoFMem   1 times, MxPair=         2
 NAB=     0 NAA=     1 NBB=     0.
 Vector Nr.   2
 **********************
 DD1Dir will call FoFMem   1 times, MxPair=         2
 NAB=     0 NAA=     1 NBB=     0.
 Vector Nr.   3
 **********************
 DD1Dir will call FoFMem   1 times, MxPair=         2
 NAB=     0 NAA=     1 NBB=     0.
 Vector Nr.   4
 **********************
 DD1Dir will call FoFMem   1 times, MxPair=         2
 NAB=     0 NAA=     1 NBB=     0.
 Actual subspace dimension: NDim=   4, NOld=   0, NNew=   4
 Right eigenvalues (eV) at iteration    1
 Root  1 =    1.174883270574
 Root  2 =    3.197405959039
 Root  3 =    3.907005521167
 Root  4 =    3.914542453758
 Norms of the Right Residuals
 Root I=  1 Norm= 5.67D-02 Max= 1.21D-02
 Root I=  2 Norm= 3.24D-02 Max= 7.62D-03
 Root I=  3 Norm= 2.25D-02 Max= 5.39D-03
 Root I=  4 Norm= 4.02D-03 Max= 2.00D-03
 New vectors created:   4

 Right Eigenvector.

 Vector Nr.   5
 **********************
 DD1Dir will call FoFMem   1 times, MxPair=         2
 NAB=     0 NAA=     1 NBB=     0.
 Vector Nr.   6
 **********************
 DD1Dir will call FoFMem   1 times, MxPair=         2
 NAB=     0 NAA=     1 NBB=     0.
 Vector Nr.   7
 **********************
 DD1Dir will call FoFMem   1 times, MxPair=         2
 NAB=     0 NAA=     1 NBB=     0.
 Vector Nr.   8
 **********************
 DD1Dir will call FoFMem   1 times, MxPair=         2
 NAB=     0 NAA=     1 NBB=     0.
 Actual subspace dimension: NDim=   8, NOld=   4, NNew=   4
 Right eigenvalues (eV) at iteration    2
 Root  1 =    1.147551726796
 Root  2 =    3.188130966335
 Root  3 =    3.902449255143
 Root  4 =    3.914055873404
 Norms of the Right Residuals
 Root I=  1 Norm= 1.04D-02 Max= 2.81D-03
 Root I=  2 Norm= 6.62D-03 Max= 1.87D-03
 Root I=  3 Norm= 4.61D-03 Max= 1.31D-03
 Root I=  4 Norm= 2.90D-04 Max= 1.36D-04
 New vectors created:   4

 Right Eigenvector.

 Vector Nr.   9
 **********************
 DD1Dir will call FoFMem   1 times, MxPair=         2
 NAB=     0 NAA=     1 NBB=     0.
 Vector Nr.  10
 **********************
 DD1Dir will call FoFMem   1 times, MxPair=         2
 NAB=     0 NAA=     1 NBB=     0.
 Vector Nr.  11
 **********************
 DD1Dir will call FoFMem   1 times, MxPair=         2
 NAB=     0 NAA=     1 NBB=     0.
 Vector Nr.  12
 **********************
 DD1Dir will call FoFMem   1 times, MxPair=         2
 NAB=     0 NAA=     1 NBB=     0.
 Actual subspace dimension: NDim=  12, NOld=   8, NNew=   4
 Right eigenvalues (eV) at iteration    3
 Root  1 =    1.145993377995
 Root  2 =    3.187579828493
 Root  3 =    3.902237938051
 Root  4 =    3.914082532254
 Norms of the Right Residuals
 Root I=  1 Norm= 2.32D-03 Max= 6.63D-04
 Root I=  2 Norm= 1.89D-03 Max= 5.60D-04
 Root I=  3 Norm= 1.79D-03 Max= 4.78D-04
 Root I=  4 Norm= 5.82D-05 Max= 3.02D-05
 New vectors created:   4

 Right Eigenvector.

 Vector Nr.  13
 **********************
 DD1Dir will call FoFMem   1 times, MxPair=         2
 NAB=     0 NAA=     1 NBB=     0.
 Vector Nr.  14
 **********************
 DD1Dir will call FoFMem   1 times, MxPair=         2
 NAB=     0 NAA=     1 NBB=     0.
 Vector Nr.  15
 **********************
 DD1Dir will call FoFMem   1 times, MxPair=         2
 NAB=     0 NAA=     1 NBB=     0.
 Vector Nr.  16
 **********************
 DD1Dir will call FoFMem   1 times, MxPair=         2
 NAB=     0 NAA=     1 NBB=     0.
 Actual subspace dimension: NDim=  16, NOld=  12, NNew=   4
 Right eigenvalues (eV) at iteration    4
 Root  1 =    1.145906970194
 Root  2 =    3.187550781661
 Root  3 =    3.902124557476
 Root  4 =    3.914080044037
 Norms of the Right Residuals
 Root I=  1 Norm= 3.02D-04 Max= 9.13D-05
 Root I=  2 Norm= 3.18D-04 Max= 1.00D-04
 Root I=  3 Norm= 4.20D-04 Max= 1.39D-04
 Root I=  4 Norm= 7.97D-06 Max= 2.94D-06
 New vectors created:   4

 Right Eigenvector.

 Vector Nr.  17
 **********************
 DD1Dir will call FoFMem   1 times, MxPair=         2
 NAB=     0 NAA=     1 NBB=     0.
 Vector Nr.  18
 **********************
 DD1Dir will call FoFMem   1 times, MxPair=         2
 NAB=     0 NAA=     1 NBB=     0.
 Vector Nr.  19
 **********************
 DD1Dir will call FoFMem   1 times, MxPair=         2
 NAB=     0 NAA=     1 NBB=     0.
 Vector Nr.  20
 **********************
 DD1Dir will call FoFMem   1 times, MxPair=         2
 NAB=     0 NAA=     1 NBB=     0.
 Actual subspace dimension: NDim=  20, NOld=  16, NNew=   4
 Right eigenvalues (eV) at iteration    5
 Root  1 =    1.145919828064
 Root  2 =    3.187554447089
 Root  3 =    3.902127174345
 Root  4 =    3.914080294599
 Norms of the Right Residuals
 Root I=  1 Norm= 4.37D-05 Max= 1.34D-05
 Root I=  2 Norm= 3.49D-05 Max= 9.08D-06
 Root I=  3 Norm= 4.62D-05 Max= 1.47D-05
 Root I=  4 Norm= 7.42D-06 Max= 2.86D-06
 New vectors created:   4

 Right Eigenvector.

 Vector Nr.  21
 **********************
 DD1Dir will call FoFMem   1 times, MxPair=         2
 NAB=     0 NAA=     1 NBB=     0.
 Vector Nr.  22
 **********************
 DD1Dir will call FoFMem   1 times, MxPair=         2
 NAB=     0 NAA=     1 NBB=     0.
 Vector Nr.  23
 **********************
 DD1Dir will call FoFMem   1 times, MxPair=         2
 NAB=     0 NAA=     1 NBB=     0.
 Vector Nr.  24
 **********************
 DD1Dir will call FoFMem   1 times, MxPair=         2
 NAB=     0 NAA=     1 NBB=     0.
 Actual subspace dimension: NDim=  24, NOld=  20, NNew=   4
 Right eigenvalues (eV) at iteration    6
 Root  1 =    1.145922585057
 Root  2 =    3.187554728001
 Root  3 =    3.902126448535
 Root  4 =    3.914080195600
 Norms of the Right Residuals
 Root I=  1 Norm= 6.60D-06 Max= 2.27D-06
 Root I=  2 Norm= 4.98D-06 Max= 1.07D-06
 Root I=  3 Norm= 5.41D-06 Max= 1.24D-06
 Root I=  4 Norm= 1.73D-06 Max= 4.96D-07
 New vectors created:   2

 Right Eigenvector.

 Vector Nr.  25
 **********************
 DD1Dir will call FoFMem   1 times, MxPair=         2
 NAB=     0 NAA=     1 NBB=     0.
 Vector Nr.  26
 **********************
 DD1Dir will call FoFMem   1 times, MxPair=         2
 NAB=     0 NAA=     1 NBB=     0.
 Actual subspace dimension: NDim=  26, NOld=  24, NNew=   2
 Right eigenvalues (eV) at iteration    7
 Root  1 =    1.145922810053
 Root  2 =    3.187554827137
 Root  3 =    3.902126476340
 Root  4 =    3.914080164574
 Norms of the Right Residuals
 Root I=  1 Norm= 7.82D-07 Max= 3.02D-07
 Root I=  2 Norm= 3.65D-06 Max= 1.19D-06
 Root I=  3 Norm= 5.80D-06 Max= 1.24D-06
 Root I=  4 Norm= 5.55D-07 Max= 1.75D-07
 New vectors created:   0
 Final Eigenvalues for Irrep    6:
 Root       Hartree              eV                 nm 
   1     0.042111888413     1.145922810053  1081.959376603198
   2     0.117140484520     3.187554827137   388.963326574075
   3     0.143400509445     3.902126476340   317.734941888239
   4     0.143839799405     3.914080164574   316.764572279890

 *****************************************************
 Starting Irrep 7
 Dimension of the space: 
 Singles AA=      52, Singles BB=       0, Doubles AA=       1242,
 Doubles AB=           0, Doubles BB=          0, Total=        1294
 EnOnly = T DoTwo = F, DoSame = F, DoRgt = T, DoLft = F, DoTrip = T,
 MSek =   6, InMSek =   6, MConv =   6, MaxMI =  120, Conv =  1.00D-05
  NNew smaller than MConv
 Error termination via Lnk1e in C:\G16W\l913.exe at Fri Apr 21 15:05:20 2023.
 Job cpu time:       0 days  0 hours  1 minutes 14.0 seconds.
 Elapsed time:       0 days  0 hours  1 minutes 13.8 seconds.
 File lengths (MBytes):  RWF=    214 Int=      0 D2E=      0 Chk=      2 Scr=      1
